<?xml version="1.0"?>
<VTKFile type="UnstructuredGrid"  version="0.1"  >
<UnstructuredGrid>
<Piece  NumberOfPoints="21266" NumberOfCells="39409">
<Points>
<DataArray  type="Float64"  NumberOfComponents="3"  format="ascii">7.1769 4.82493 0  7.15599 4.841 0  7.13689 4.8551 0  7.1158 4.86986 0  7.09545 4.8833 0  7.0735 4.89909 0  7.2004 4.80826 0  7.2192 4.79324 0  7.2427 4.77631 0  7.2615 4.76004 0  7.2803 4.7447 0  7.2991 4.72921 0  7.31718 4.7141 0  7.33791 4.7 0  7.35423 4.6812 0  7.4495 4.58896 0  7.4683 4.56902 0  7.48701 4.5496 0  7.5039 4.5308 0  7.52 4.51291 0  7.53648 4.4932 0  7.5529 4.47481 0  7.17401 4.79802 0  7.15325 4.81426 0  7.13467 4.82894 0  7.11397 4.84383 0  7.09237 4.85558 0  7.07198 4.87138 0  7.05309 4.9115 0  7.05196 4.88634 0  7.0312 4.92685 0  7.0077 4.94116 0  7.19575 4.78239 0  7.21754 4.76837 0  7.23886 4.75218 0  7.25562 4.73534 0  7.27434 4.71992 0  7.29305 4.70439 0  7.3743 4.66399 0  7.3931 4.64533 0  7.4119 4.62616 0  7.4307 4.6086 0  7.31147 4.68903 0  7.32976 4.67219 0  7.34743 4.65373 0  7.56907 4.4556 0  7.58329 4.4368 0  7.59837 4.418 0  7.61305 4.3992 0  7.42335 4.581 0  7.44078 4.56169 0  7.47657 4.5264 0  7.45879 4.54253 0  7.49593 4.50844 0  7.51006 4.48936 0  7.52531 4.46995 0  7.54154 4.45075 0  7.1155 4.82061 0  7.16987 4.77069 0  7.14788 4.78758 0  7.12908 4.8052 0  7.09123 4.82654 0  7.06881 4.84355 0  7.04978 4.8604 0  7.02821 4.8991 0  7.03421 4.87544 0  7.00476 4.91014 0  6.9842 4.95543 0  6.9607 4.96994 0  6.93934 4.982 0  6.9184 4.99413 0  6.8949 5.0077 0  6.98145 4.92568 0  6.87443 5.0196 0  6.8526 5.03151 0  6.8291 5.04427 0  6.80549 5.0572 0  6.7821 5.06881 0  6.7586 5.08225 0  6.7351 5.09287 0  6.7116 5.10521 0  6.6881 5.11648 0  7.19272 4.75504 0  7.21665 4.74609 0  7.23042 4.72455 0  7.24824 4.71067 0  7.26973 4.69518 0  7.28646 4.67889 0  7.36559 4.63485 0  7.38342 4.61517 0  7.40426 4.59902 0  7.30423 4.66219 0  7.32137 4.64451 0  7.33935 4.62565 0  7.6281 4.379 0  7.6422 4.35929 0  7.6563 4.34009 0  7.67443 4.3193 0  7.55814 4.43199 0  7.57462 4.4151 0  7.59006 4.39525 0  7.60188 4.37551 0  7.4009 4.57326 0  7.41396 4.55444 0  7.4307 4.5342 0  7.47493 4.50372 0  7.44923 4.51424 0  7.485 4.48594 0  7.49758 4.46571 0  7.51313 4.44582 0  7.53056 4.42631 0  7.16772 4.73996 0  7.10435 4.80157 0  7.14271 4.7603 0  7.12093 4.78085 0  7.08185 4.80093 0  7.06371 4.81511 0  7.04358 4.832 0  7.02383 4.85045 0  7.00539 4.87652 0  6.97813 4.89407 0  6.95911 4.94168 0  6.93971 4.95578 0  6.91804 4.97033 0  6.89554 4.98171 0  6.87489 4.99508 0  6.95463 4.91127 0  6.85249 5.00745 0  6.82973 5.01717 0  6.80615 5.02883 0  6.78262 5.04136 0  6.75883 5.05356 0  6.73538 5.06548 0  6.71171 5.07745 0  6.66736 5.1277 0  6.6889 5.09005 0  6.66857 5.10307 0  7.6892 4.29795 0  7.78096 4.1407 0  7.70249 4.277 0  7.7691 4.16195 0  7.75678 4.183 0  7.7174 4.25497 0  7.72912 4.23 0  7.74292 4.2065 0  7.7926 4.11952 0  7.19623 4.72095 0  7.22149 4.69784 0  7.24709 4.68864 0  7.26072 4.66745 0  7.27958 4.65508 0  7.35596 4.60523 0  7.37586 4.58123 0  7.29133 4.63183 0  7.31613 4.62148 0  7.32791 4.59966 0  7.61643 4.3556 0  7.63282 4.3371 0  7.64817 4.3144 0  7.6624 4.29423 0  7.5494 4.40779 0  7.56853 4.39535 0  7.57509 4.37324 0  7.58865 4.35111 0  7.38542 4.55004 0  7.40218 4.5263 0  7.41892 4.50587 0  7.45946 4.48569 0  7.43505 4.48835 0  7.46877 4.46262 0  7.48316 4.44059 0  7.50057 4.42157 0  7.52053 4.39994 0  7.156 4.70458 0  7.1408 4.73494 0  7.09057 4.77616 0  7.10931 4.74763 0  7.05941 4.78525 0  7.0402 4.80507 0  7.01422 4.81688 0  6.99401 4.83891 0  6.97269 4.86114 0  6.94968 4.87903 0  6.93339 4.92954 0  6.91887 4.94835 0  6.89523 4.95505 0  6.87181 4.96799 0  6.85528 4.98657 0  6.92596 4.8974 0  6.83142 4.99095 0  6.80584 4.99996 0  6.78413 5.01302 0  6.73529 5.0367 0  6.75899 5.02675 0  6.71146 5.04906 0  6.68777 5.06204 0  6.6458 5.13871 0  6.62098 5.1512 0  6.5988 5.16279 0  6.64597 5.11434 0  6.66562 5.07608 0  6.64892 5.09369 0  6.57429 5.1747 0  6.5518 5.18561 0  6.5283 5.19672 0  7.67678 4.27344 0  7.65342 4.27244 0  7.76791 4.12016 0  7.75605 4.13966 0  7.68816 4.2524 0  7.74189 4.16147 0  7.72738 4.18138 0  7.70047 4.22914 0  7.71326 4.20492 0  7.8038 4.0984 0  7.81472 4.0749 0  7.77971 4.09887 0  7.86109 3.9809 0  7.18253 4.67983 0  7.22404 4.66203 0  7.25454 4.63507 0  7.27021 4.60915 0  7.34119 4.57632 0  7.35416 4.54866 0  7.29325 4.59534 0  7.31287 4.5746 0  7.13581 4.66432 0  7.60481 4.33106 0  7.62389 4.31457 0  7.63238 4.28784 0  7.54401 4.37792 0  7.5587 4.35201 0  7.57738 4.3254 0  7.36708 4.51353 0  7.39328 4.49781 0  7.40977 4.47505 0  7.43809 4.4633 0  7.4493 4.43448 0  7.46959 4.41333 0  7.49389 4.39733 0  7.50474 4.36871 0  7.10704 4.69993 0  7.06136 4.74104 0  7.02006 4.77609 0  6.94628 4.8503 0  6.98557 4.80104 0  6.96211 4.8272 0  6.92021 4.85963 0  6.90174 4.92376 0  6.86584 4.93962 0  6.83822 4.96125 0  6.88978 4.87871 0  6.80696 4.9733 0  6.78034 4.98216 0  6.76196 5.00183 0  6.71202 5.019 0  6.73503 5.00634 0  6.68661 5.03366 0  6.66135 5.04676 0  6.62341 5.12492 0  6.60062 5.13791 0  6.57598 5.1491 0  6.62498 5.09806 0  6.63497 5.0685 0  6.55217 5.15776 0  6.52795 5.1681 0  6.5048 5.20905 0  6.4813 5.2194 0  6.45602 5.2311 0  6.50367 5.17943 0  8.175240000000001 2.9281 0  8.17483 2.9046 0  8.17423 2.8811 0  8.174060000000001 2.8576 0  8.17165 2.8341 0  7.66054 4.25141 0  7.6336 4.25542 0  7.75902 4.10052 0  7.7333 4.1392 0  7.74084 4.11642 0  7.6704 4.2277 0  7.71251 4.15331 0  7.69687 4.17903 0  7.68277 4.20345 0  7.85116 4.0044 0  7.83862 4.0279 0  7.82746 4.0514 0  7.78904 4.07645 0  7.80125 4.05338 0  7.76369 4.07955 0  7.88387 3.9104 0  7.86962 3.9574 0  7.8772 3.93447 0  7.83694 3.9834 0  7.84642 3.96163 0  7.9125 3.8399 0  7.9007 3.86401 0  7.89251 3.8869 0  7.9242 3.81828 0  7.93714 3.7929 0  7.94966 3.7694 0  7.96124 3.7459 0  7.9712 3.72394 0  7.9806 3.7023 0  7.99072 3.6801 0  8.001659999999999 3.6566 0  8.087149999999999 3.4216 0  8.133559999999999 3.2571 0  8.095409999999999 3.3981 0  8.16422 3.0926 0  8.17474 2.9516 0  8.174110000000001 2.9751 0  8.166729999999999 3.0691 0  8.172639999999999 2.9986 0  8.170400000000001 3.0456 0  8.171239999999999 3.0221 0  7.17467 4.63462 0  7.21672 4.6218 0  7.23833 4.59746 0  7.26321 4.58321 0  7.31987 4.54885 0  7.33555 4.522 0  7.28125 4.55496 0  7.078 4.64761 0  7.11655 4.61904 0  7.14452 4.58878 0  7.59744 4.29841 0  7.60567 4.26319 0  7.5245 4.34575 0  7.54874 4.32635 0  7.55631 4.29734 0  7.33584 4.49112 0  7.36847 4.46828 0  7.40618 4.43358 0  7.43005 4.39967 0  7.46198 4.37186 0  7.48449 4.33447 0  7.04196 4.68162 0  7.00114 4.7206 0  6.97852 4.76275 0  6.92582 4.82296 0  6.94354 4.78428 0  6.88373 4.8294 0  6.85821 4.90133 0  6.82739 4.92231 0  6.80779 4.94706 0  6.85047 4.85705 0  6.77763 4.95422 0  6.68923 5.00653 0  6.74478 4.97187 0  6.70805 4.98747 0  6.63119 5.02825 0  6.66197 5.01202 0  6.59914 5.10863 0  6.58045 5.12778 0  6.55443 5.13039 0  6.59803 5.07802 0  6.6056 5.04652 0  6.528 5.13892 0  6.50252 5.14969 0  6.43421 5.2405 0  6.48009 5.19136 0  6.45715 5.20361 0  6.43649 5.2163 0  6.47803 5.16133 0  6.4108 5.25202 0  8.17079 2.8106 0  8.167149999999999 2.7871 0  8.154590000000001 2.93955 0  8.154109999999999 2.91651 0  8.15418 2.89326 0  8.153309999999999 2.87014 0  8.151289999999999 2.84913 0  8.149430000000001 2.82814 0  7.6399 4.22787 0  7.60964 4.22977 0  7.73817 4.08677 0  7.71461 4.12536 0  7.71671 4.10318 0  7.69331 4.13276 0  7.6504 4.20218 0  7.68013 4.15337 0  7.6652 4.17775 0  7.82434 4.00569 0  7.81248 4.02823 0  7.77107 4.05359 0  7.78856 4.03239 0  7.73981 4.05725 0  7.86843 3.89261 0  7.86032 3.91613 0  7.85377 3.9396 0  7.81516 3.98384 0  7.82305 3.96326 0  7.83403 3.94522 0  7.8965 3.81729 0  7.88316 3.84225 0  7.87622 3.86812 0  7.85458 3.87668 0  7.90753 3.79329 0  7.87802 3.79373 0  7.9333 3.74821 0  7.91938 3.76881 0  7.94615 3.72557 0  7.92535 3.72614 0  7.95529 3.70353 0  7.9654 3.68124 0  8.01069 3.6331 0  8.01989 3.6096 0  7.97586 3.65705 0  7.98482 3.63413 0  8.05498 3.5156 0  8.029820000000001 3.5861 0  8.03876 3.5626 0  8.04772 3.5391 0  8.030720000000001 3.51946 0  8.080640000000001 3.4451 0  8.072329999999999 3.4686 0  8.06363 3.4921 0  8.0641 3.42609 0  8.07094 3.40327 0  8.16114 3.1161 0  8.156940000000001 3.1396 0  8.138909999999999 3.2336 0  8.15274 3.1631 0  8.144220000000001 3.2101 0  8.14855 3.1866 0  8.10263 3.3746 0  8.10993 3.3511 0  8.115780000000001 3.3276 0  8.122439999999999 3.3041 0  8.12876 3.2806 0  8.10966 3.26397 0  8.11359 3.24102 0  8.078049999999999 3.37987 0  8.14321 3.07889 0  8.141349999999999 3.10148 0  8.15352 2.96247 0  8.15235 2.9842 0  8.145149999999999 3.05572 0  8.15104 3.00933 0  8.14743 3.03243 0  7.19201 4.57985 0  7.23443 4.55731 0  7.2971 4.50674 0  7.25047 4.51791 0  7.02161 4.61732 0  7.06736 4.59854 0  7.09621 4.56242 0  7.14317 4.54799 0  7.56834 4.26623 0  7.58264 4.23842 0  7.51214 4.30231 0  7.53449 4.27134 0  7.31111 4.44476 0  7.35601 4.42209 0  7.37649 4.38318 0  7.40713 4.35132 0  7.43696 4.31869 0  7.46789 4.29547 0  6.95252 4.58363 0  6.9763 4.65998 0  6.93501 4.72433 0  6.90184 4.77571 0  6.85805 4.78593 0  6.8346 4.81522 0  6.81401 4.88663 0  6.78449 4.91855 0  6.81425 4.84579 0  6.73904 4.92209 0  6.67455 4.97849 0  6.70206 4.94517 0  6.59506 5.01185 0  6.62898 4.98162 0  6.56515 5.09576 0  6.52968 5.10747 0  6.56876 5.04596 0  6.50118 5.12005 0  6.47599 5.13011 0  6.41366 5.22638 0  6.41804 5.20392 0  6.45471 5.17425 0  6.43421 5.18919 0  6.45079 5.1429 0  6.3873 5.26213 0  6.3906 5.23532 0  6.3638 5.27155 0  6.3403 5.28103 0  6.3168 5.29122 0  6.2933 5.29956 0  6.2698 5.30896 0  8.119630000000001 2.5051 0  8.164619999999999 2.7636 0  8.1614 2.7401 0  8.15827 2.7166 0  8.156560000000001 2.6931 0  8.15221 2.6696 0  8.147919999999999 2.6461 0  8.145910000000001 2.6226 0  8.12731 2.5286 0  8.131930000000001 2.5521 0  8.14226 2.5991 0  8.137460000000001 2.5756 0  8.143140000000001 2.80375 0  8.14217 2.77806 0  8.136570000000001 2.94954 0  8.133369999999999 2.92906 0  8.13245 2.90452 0  
[...]
<CellData  Scalars="f_22081"> 
<DataArray  type="Float64"  Name="f_22081"  format="ascii">1.3717722737578372e-06   1.0848173774299012e-06   1.2145869903380536e-06   8.2724886403196333e-07   9.5587919746755886e-07   7.5117905820331422e-07   8.8825862130699414e-07   6.3468923071331899e-07   7.6894317120452274e-07   5.1102125034474883e-07   6.3182746908950210e-07   3.0428403685853915e-07   4.5057182422618071e-07   1.2279341574096066e-06   1.4065091476652112e-06   1.4209525010904951e-06   1.3372046451983953e-06   1.2415592953252011e-06   1.4042014303391731e-06   1.3288334562582471e-06   1.2452634209903065e-06   1.3073380062873536e-06   1.3441449595324654e-06   1.2090692288439762e-06   1.3012362530650403e-06   1.2390749502652519e-06   1.2053958441093427e-06   1.1644995961244021e-06   1.2944206674680140e-06   1.0996110172352243e-06   1.0765468874622974e-06   3.8021003580862441e-07   2.3789559093209305e-07   2.8192682763617623e-07   3.6825828563943611e-08   1.1631158800750494e-07   6.5765855926496018e-08   1.6198660117238321e-07   8.2005472825279136e-09   1.6370379507371037e-08   1.3969455068625663e-08   2.4730321850763630e-09   5.3644503503986091e-08   2.2301439089637884e-08   1.2915168620608713e-07   7.9347293802373750e-08   7.0559993705450144e-07   1.4313752884357204e-06   1.2810073624919602e-06   1.4595757288178082e-06   9.3377194628980602e-07   1.1545496799305940e-06   6.9436297083570092e-07   8.2263965574628815e-07   8.9696725087758738e-07   6.6773649096937521e-07   8.7445319457612364e-07   4.6274438228946540e-07   5.9244960869858555e-07   2.6609688808296780e-07   3.5400107970317014e-07   2.9578992242376641e-07   3.4310341640434113e-07   1.9987341433236805e-07   2.7910902018513632e-07   1.3433449843321611e-07   1.9616660445479272e-07   1.4622264225110348e-06   1.5827518743812051e-06   1.1695155152294757e-06   1.3509585068642526e-06   1.4797988503768920e-06   1.3409011195430026e-06   1.3721004049590689e-06   1.3358493334747320e-06   1.2267366844099482e-06   1.4483928629462778e-06   1.2312312172634995e-06   1.1995692979447897e-06   9.8321726181722035e-07   1.0416885711906553e-06   8.2696294373364607e-07   8.8452691094031262e-07   5.2888818543898907e-07   4.4912100382276447e-07   6.6115378294071677e-07   1.2153396332620880e-06   1.2482159456364048e-06   1.1392891040988637e-06   1.1657213038461211e-06   9.9840986471887563e-07   1.0693696453426259e-06   2.0301893418803639e-07   1.6438636604196183e-07   2.8391914662143731e-07   2.3073916294010373e-07   3.9546505058649368e-07   3.5486844862085083e-07   6.1387447107832302e-07   4.7322686104098809e-07   3.6969065827883925e-07   2.8499477327457533e-07   2.7720699775739584e-07   1.7062148313866415e-07   2.2693725055644500e-07   1.0765257794504919e-08   7.0501540269764460e-08   4.2398085074628484e-08   1.2564824770435719e-07   1.1353878659606341e-09   3.4048166599087275e-09   2.2605132127726314e-08   1.0242332296000056e-08   8.1903892679535420e-08   4.8514694782490390e-08   1.7031120744831570e-07   1.2525054029810537e-07   1.7298456255384910e-06   7.8429946260853452e-07   8.2259323817898145e-07   1.5231005875866470e-06   1.9314312410610363e-06   1.2237190483383286e-06   1.5019686413505529e-06   1.0640242560608305e-06   1.0196927206276853e-06   1.0193291694201234e-06   9.4278517330426683e-07   7.4752115382898978e-07   8.6927964017928684e-07   5.1065430948171378e-07   6.9985022946751999e-07   3.6746066506128872e-07   4.9176195821037182e-07   5.2560912630120593e-07   3.1722328964065654e-07   4.7135274832619245e-07   1.1714243508855458e-07   1.2009421631216002e-07   1.1838773497365376e-07   9.3724916945913509e-08   1.6460504417652022e-07   1.1928385732342040e-07   3.0638716096737632e-07   1.7655843023568926e-07   3.5595361900962108e-07   2.6852135029142671e-07   2.6171344352241602e-07   2.9987058919844528e-07   5.1665160427102403e-07   3.8958067293860925e-07   8.1145971645166493e-07   5.3610330620813152e-07   1.0774960287355107e-06   8.1067036779059599e-07   1.2572438896438476e-06   1.0668176931098903e-06   1.5536890740114307e-06   1.2670119020769956e-06   1.6935806824839004e-06   1.5374867481186216e-06   1.9066521054702127e-06   1.6856252991075890e-06   1.9421960873860553e-06   1.8338351799952728e-06   1.6587107955183022e-06   1.6594102079670251e-06   2.0241246917651686e-06   1.8541186964621918e-06   2.2961600221290562e-06   1.4827213565592173e-06   2.2307534474910171e-06   1.1707193999764903e-06   1.4731475372638767e-06   1.4019722699479738e-06   1.3139814130479862e-06   1.1413178422370177e-06   1.2110312493280742e-06   8.8428944717755345e-07   9.2371958777827065e-07   7.6384163630774565e-07   5.5896975934197373e-07   8.9269779965952198e-07   1.4517389956525719e-06   1.2957351750626283e-06   8.5839881469248813e-07   1.1879353774786825e-06   9.5014311143748830e-07   8.5049892141016920e-07   7.3527798684167351e-07   6.8146830322969401e-07   7.7285354867128822e-07   7.7547061797189668e-07   1.1624434144675008e-06   1.0035670907707327e-06   1.2784493538970105e-06   1.1888350225615015e-06   2.5575858578617629e-07   2.2668548096161516e-07   2.8935479178385996e-07   2.4937689064726538e-07   5.0554354873324515e-07   3.9145166397492568e-07   7.2909244546332422e-07   6.5975909097841639e-07   3.5978317173304113e-07   5.3328290058925166e-07   2.8553483559539905e-07   3.9332338747993970e-07   1.7479895381668367e-07   2.3699489110601225e-07   1.8849438946493729e-08   5.0003368293331731e-08   1.3165593164935392e-07   8.4619235887026684e-08   3.4996583926472470e-08   3.5870454699660632e-08   8.2964097655627293e-08   6.8363961961086774e-08   1.6203935302700396e-07   1.2134820051271782e-07   2.8771143563767641e-07   2.5102859959597910e-07   3.1930178208370062e-06   1.6693420950474796e-06   2.2292216923397416e-06   1.4691621973484016e-06   9.9133729100892307e-07   2.2386563732157841e-06   2.0787735420208254e-06   1.9988772806920727e-06   1.0440103468765147e-06   1.3958184808141032e-06   8.9960763835787417e-07   1.0881187149718927e-06   1.0759113453737437e-06   1.0880802497354923e-06   1.0276767987675866e-06   9.9121680447642967e-07   7.2728730880324582e-07   8.6847227118206034e-07   5.2199009092269574e-07   5.7214413158048332e-07   2.0692078989921661e-07   2.2284964239354536e-07   1.8351750178941788e-07   1.5393234800067109e-07   3.2559407215282724e-07   2.0413671469692491e-07   4.4488859613472895e-07   3.4170275778292848e-07   4.1430358405772739e-07   3.7390681930158660e-07   4.7502233888147822e-07   4.7833418433515628e-07   7.2508954926124978e-07   4.7001587781161828e-07   1.0937414541103551e-06   8.2223642901138407e-07   1.2518750365169966e-06   1.0050019699095141e-06   1.7904988436605205e-06   1.4631293072845570e-06   1.3342575939950861e-06   1.4505537130404020e-06   2.0070161967828100e-06   1.8085588915718768e-06   2.1249039588793383e-06   1.9976414117398072e-06   1.8214413276551001e-06   1.7985222053729137e-06   2.0314413131662980e-06   2.0595265646341644e-06   1.5554818734865609e-06   1.7389920844402169e-06   1.2934926586554642e-06   1.3375309162764460e-06   1.0891783046088614e-06   1.0580849726340958e-06   1.1943028091935723e-06   1.1376174000857997e-06   1.6002987277243988e-06   1.3834174210655641e-06   1.3481236125719560e-06   1.4509087737891123e-06   1.7221815005349189e-06   1.5289481061153654e-06   1.7357687275481543e-06   1.7849990178283105e-06   1.7587834893763021e-06   1.8634701515363072e-06   1.8213616877761321e-06   9.4601197716067607e-07   1.1036825168985091e-06   3.6364969485478425e-06   3.8681032935699111e-06   2.1647504844333797e-06   2.1976316534006270e-06   3.9909367032642040e-06   1.8243074170642347e-06   1.5661884784816946e-06   2.8345416625048764e-06   1.9487738885768193e-06   1.0545650965057016e-06   9.3625969475022211e-07   1.0270795038165090e-06   9.0156075778544711e-07   1.4105919535486247e-06   1.6273700772482419e-06   1.6387959088488806e-06   1.0066079598801812e-06   1.3330617792948674e-06   4.7400356898141728e-06   9.0317898083223991e-07   8.3625396413217962e-07   9.4063117799569576e-07   9.0737167316769509e-07   1.3733926450975525e-06   1.2303626370901006e-06   1.2560977124073274e-06   5.0293392696291946e-07   4.1225983407820284e-07   4.6277849358208936e-07   6.9410601640965156e-07   6.5544191584271881e-07   8.8332401770963453e-07   9.6258712976296970e-07   7.0994345716655692e-07   8.8252869010709272e-07   2.8831123708982907e-07   5.3489213514543017e-07   2.0790117791682651e-07   2.7751917598192071e-07   1.0078813016211038e-07   9.7561969995768045e-08   1.9169675711202844e-07   1.6757721713809775e-07   1.8137801872910678e-07   2.1006140820200978e-07   2.2573132834760892e-07   2.5456022999015701e-07   2.5503398408262825e-07   7.4237947235090325e-07   4.7004740753775403e-07   3.8839187273616975e-06   5.4505544190500409e-06   4.6413687929683099e-06   3.7714233595976264e-06   5.8781312275992635e-06   2.7479700649617344e-06   1.8736161985671265e-06   1.5640784400776783e-06   3.6707550307239250e-06   6.9657704556454342e-07   1.4095211875042500e-06   2.1369874763577087e-06   1.1539293035720712e-06   1.4028084906450290e-06   7.7407044965361910e-07   8.9434666507818732e-07   7.3857288136038171e-07   3.7014929444167855e-07   3.8318629018849058e-07   4.6955774812014656e-07   6.2977955536140169e-07   6.3278042781815584e-07   7.3892599225172769e-07   7.8684348814857723e-07   7.6568885284831074e-07   1.2834620772750386e-06   1.0658638171926843e-06   1.0633992903027931e-06   1.0391656890570607e-06   1.3967525241833456e-06   1.1164548677006653e-06   1.3292387937918243e-06   1.2511198869199903e-06   2.1258830830546188e-06   1.9199564572113976e-06   1.4998079800450937e-06   1.8592001995382186e-06   2.2856075116668758e-06   2.2601528385228012e-06   2.5521170664580237e-06   2.4263223423484134e-06   2.2186288585197946e-06   1.8886367941508490e-06   1.9052492861877957e-06   2.0148472334110891e-06   2.1703078497084598e-06   2.1170235439663309e-06   2.2137556302074626e-06   1.7259302669769517e-06   2.4828313620382569e-06   2.5448700970894601e-06   3.1210196985319777e-06   2.1931797380380373e-06   2.1166372196424285e-06   2.3146586315388392e-06   2.3510954070265229e-06   2.3196651948296630e-06   2.3801019778395318e-06   1.3781371298400903e-06   1.1824721140536849e-06   1.2348749924838358e-06   1.4809799553761007e-06   9.1459148146370396e-07   1.2384937500876794e-06   1.3370088043888460e-06   1.1550116104400244e-06   1.3470003285787377e-06   1.7623736764431527e-06   1.6863868907597074e-06   1.8201260081751036e-06   1.4786942441362325e-06   1.9509761272947568e-06   2.2480907246288588e-06   1.9309091415576776e-06   2.0916147171259957e-06   1.9893236608446685e-06   9.8911732916710822e-07   1.0597734388302045e-06   8.8565328779332990e-07   1.0134530941310472e-06   1.0775864232194184e-06   9.8006992165197798e-07   5.3675013493794705e-07   4.6208553091920890e-07   5.3221279516546746e-07   5.5891912705778464e-06   6.1233751968552804e-06   3.7300581705151110e-06   5.3599363641886159e-06   2.5030140141327299e-06   3.0437913524664140e-06   1.4441604457935755e-06   1.7656165868798283e-06   1.1905154700201499e-06   1.0076758204031587e-06   1.1001528506209231e-06   9.7508902633596862e-07   1.6345535968224828e-06   1.9535181356049537e-06   2.0765400370832348e-06   8.8610622071126676e-06   7.9845591165361728e-06   8.1053466788960002e-06   7.5490162843402839e-06   1.5668008636996982e-06   1.2635575341711396e-06   1.3719693495146096e-06   2.3846319645548666e-06   1.9102539613360259e-06   9.2124895940413012e-07   8.8927156246573765e-07   9.5559591584329003e-07   9.1510767061063369e-07   1.9288545230129428e-06   1.2850037159870312e-06   9.9082012441817726e-07   6.2223806716280267e-07   8.7600956816708015e-07   1.2761655835914026e-06   4.8398067819380404e-07   4.9731069141635250e-07   1.0468069392623360e-06   5.1729871461425146e-07   7.3475705137413857e-07   6.4307282137449456e-07   8.2975499410411410e-07   9.1568210092168561e-07   1.1854179555285322e-06   1.3798263581700952e-06   1.0971184725057652e-05   9.3297128702924594e-06   8.8929783310027381e-06   7.7106402068768585e-06   3.0813913732799700e-06   4.4183217666106075e-06   1.2595429236808099e-06   1.0259341200925916e-06   2.6424446576803559e-06   2.7895270429641007e-06   2.0499701530165293e-06   2.0793796723017380e-06   2.0965863913778485e-06   1.4084710178717247e-06   1.5678194016960779e-06   1.7083543596128113e-06   1.3782241525850166e-06   1.3384212392625591e-06   1.2945493874799348e-06   2.1787285193940272e-06   2.2456500224942578e-06   1.5325418663427438e-06   1.2672847667736519e-06   2.1766645321091461e-06   2.0476513162282732e-06   2.2253756742771428e-06   1.9274104161974799e-06   2.3543559177612310e-06   2.8945438126127514e-06   2.0339176146910394e-06   4.5494723486479026e-06   3.2059357835503690e-06   2.4309021286579057e-06   3.9015731326885069e-06   2.6415138459777007e-06   2.5327130992332319e-06   1.8066961606892712e-06   2.2050058603274216e-06   2.4304035735832116e-06   2.0775762686647736e-06   3.2827838771573724e-06   3.8883816723889646e-06   4.3672907274944407e-06   4.5889821735284749e-06   2.6807286241986433e-06   2.7074569766663177e-06   2.7016001947327188e-06   2.8127366512380390e-06   2.0787123432585188e-06   2.3184428892591058e-06   1.9682065545407758e-06   2.0374723884859633e-06   1.3704797419609715e-06   1.6144216461514790e-06   2.5688596743971963e-06   2.7186181677006835e-06   6.7538297552474813e-07   7.2798047685870407e-07   5.7209281620985980e-07   7.4998295869837044e-07   6.1795443833397287e-07   8.2139679834785813e-07   6.6683945251098309e-07   9.1159768606787747e-07   7.1172038217610602e-07   9.7722544700197912e-07   7.7526609039555849e-07   1.7967342179993075e-06   1.8292536331321474e-06   2.0315983785758143e-06   2.2656774947012154e-06   1.1408469651716133e-06   1.4843220939774315e-06   1.3571160476848797e-06   1.5405379121962321e-06   1.5994120864584283e-06   1.7386919405458521e-06   1.5911409745496798e-06   2.1365264588728194e-06   2.1526493458601926e-06   2.3395266348511627e-06   1.9690439188722669e-06   2.2003816377100626e-06   2.3326683239401131e-06   2.3242984739233195e-06   6.9920379577004826e-07   6.8172540797725475e-07   7.9471352109200135e-07   7.9433809640091634e-07   9.9828764319294437e-07   1.2866060715862080e-06   1.3858275390135678e-06   9.1499700608189884e-07   1.2002634436776577e-06   1.7244550218380480e-06   1.9314294953868092e-06   5.2582359257392987e-07   4.8764860077794715e-07   5.2627244142833771e-07   4.4051852108650457e-07   5.2086857614832140e-07   4.8597998938399543e-07   6.4384324880113377e-07   5.9225286226168800e-07   6.0285108728922692e-07   4.4148567765541192e-07   5.0127154712647461e-07   9.6233148034315542e-07   9.2136949555096811e-07   9.6731661648689292e-07   6.0678050233729239e-07   7.4802886373922711e-07   6.0667983329235348e-07   5.8268464860980607e-07   1.3823435009577792e-06   1.0705528647220338e-06   1.3387162042618506e-06   1.5514553399824263e-06   1.5512032111208682e-06   1.3659604675862781e-06   1.3405294414944839e-06   1.4914898569953826e-06   1.4911197641233383e-06   1.2887412885844943e-06   1.6712475652881645e-06   1.5074014370207373e-06   1.8943135093286357e-06   1.7242677487954639e-06   2.2647795069682432e-06   2.0690102403544387e-06   2.4231919830783922e-06   2.2131771693529374e-06   2.5740589723076655e-06   2.2248215158269677e-06   2.2007156336811350e-06   2.1529104922260275e-06   1.3691816621508556e-06   1.3063760237219248e-06   1.2979475549377218e-06   2.1040208473178796e-06   2.2147893379304836e-06   7.0965303148420219e-07   7.1650433077865947e-07   5.7904160077746180e-07   6.6443438768462206e-07   5.2784040294781766e-07   6.5156470049516402e-07   4.8721028329868086e-07   7.2635906297371688e-07   5.6297281989949745e-07   6.3300941351017881e-07   5.4111475124509855e-07   7.1199209132779257e-07   5.1816802960385671e-07   5.7519735016457833e-07   4.4038960780097627e-06   6.2325144669555021e-06   8.4395312803548571e-06   2.9753495719806431e-06   2.6303429789422902e-06   5.0953525783374377e-06   1.9447721937577381e-06   1.6683880281041389e-06   3.0031030415163297e-06   4.1980606096574283e-06   4.1382627555816198e-06   1.1712544509443996e-05   8.6696901420371884e-06   1.0044291867286034e-05   8.8454586901669723e-06   9.4173752193201020e-06   6.7633712530241643e-06   7.7951182741987479e-06   2.6059984384327819e-06   2.5262441777518079e-06   2.3337455698464072e-06   2.1163217256255265e-06   1.7872275711651799e-06   1.9553406361084869e-06   2.0739196346116091e-06   1.9919935809384347e-06   2.2315416468202652e-06   2.4579020881322495e-06   3.4617427682280437e-06   1.7019969682764112e-06   2.7337240010710533e-06   1.7785353945327594e-06   1.9417991366992524e-06   1.9847055300074045e-06   2.1097716497223909e-06   2.4339806512036722e-06   2.6569865545383427e-06   2.4721570848613118e-06   2.2603056158417635e-06   1.2071550666194589e-05   1.3787596598644715e-05   1.9056528973349916e-05   5.2519348387244495e-06   7.5894888995728895e-06   1.1531401681940307e-05   3.5759775295723345e-06   4.8749182355353857e-06   3.2192007456246894e-06   4.5092274778779789e-06   3.3612728518115471e-06   3.0391236448778769e-06   2.3546610543136445e-06   2.1817784940461283e-06   1.9279224991922555e-06   2.2957951575441460e-06   1.9791836450358760e-06   2.8177465838031442e-06   2.1982181278159170e-06   4.4081855170741309e-06   3.2973978611863495e-06   2.7236513391541516e-06   2.9996645102044709e-06   5.0878185997054082e-06   4.2300765598335183e-06   5.0109132058743092e-06   4.6974684179232376e-06   6.0147881352326658e-06   5.4861154837501445e-06   6.7388997671128753e-06   3.6536889570738972e-06   3.5833741914453898e-06   4.1697978366820763e-06   3.3770840336424468e-06   4.5975592469594778e-06   6.9546048399440197e-06   4.9673880200917322e-06   5.5780427944642662e-06   3.1100545786571852e-06   3.6211504313195762e-06   3.0705195236401848e-06   3.0637092221739134e-06   1.4376804116218691e-06   1.4603616134924692e-06   1.3347068785332429e-06   2.3225301254448656e-06   2.5443634608503514e-06   1.8112460907892304e-06   2.1087902114068191e-06   1.4558168543235920e-06   2.8875078767774099e-06   3.1612663522774825e-06   1.4368188052192615e-06   1.4701560211062822e-06   1.2830406311113323e-06   1.1872887898102700e-06   1.2662842071683813e-06   1.2961602545391437e-06   4.5193000684203515e-07   5.7657666641442926e-07   3.7589103591995895e-07   6.5672559570552772e-07   5.2787476301188355e-07   5.7427282983065277e-07   4.9840765599666597e-07   7.2350355327367022e-07   5.4667211099651503e-07   7.4314565969600439e-07   6.7118286681475731e-07   7.1638421142648981e-07   5.8545305384675777e-07   2.4897038093162340e-06   2.4208635273243187e-06   2.9224240689433595e-06   2.5659520654458093e-06   2.7045373238595009e-06   2.5170273637035041e-06   1.5688376836452794e-06   2.5224784154552948e-06   1.7371151158153797e-06   2.2175779377108852e-06   2.1892864970398474e-06   2.9622771395411009e-06   3.0846577270751919e-06   2.1139800032725616e-06   2.6728200867257999e-06   2.6462023651149383e-06   1.1532968700630784e-06   9.5638720874001397e-07   1.2906118718041588e-06   1.8721853370441977e-06   1.9096098126082149e-06   2.5587956760618757e-06   3.8142387277422395e-06   4.2719995234796773e-06   6.6248513850557384e-07   5.9702835705844931e-07   6.0189035737419774e-07   7.5040390401499716e-07   5.4574481804939163e-07   8.1983745396260444e-07   1.3393763072654902e-06   6.5134327265863606e-07   7.0765287895921672e-07   1.1656842338774035e-06   1.2592984551230679e-06   1.3326355885382974e-06   1.0760783454444768e-06   1.2900682758232876e-06   8.9297316081386029e-07   8.9789223199818322e-07   8.1309697555640962e-07   1.6115119892777700e-06   1.4183298580380904e-06   1.5014073843403840e-06   1.5904857296889771e-06   1.3531458579925401e-06   1.8362967803015294e-06   1.5430493388238055e-06   1.8271758508423384e-06   1.6096322961583715e-06   1.1731149175256911e-06   1.4583335142035635e-06   1.7516061886072522e-06   2.0389627911161330e-06   1.7234621353188154e-06   1.9348214934321905e-06   1.8482892580772040e-06   2.6902658751853176e-06   2.54174088