<?xml version="1.0"?>
<VTKFile type="UnstructuredGrid"  version="0.1"  >
<UnstructuredGrid>
<Piece  NumberOfPoints="21266" NumberOfCells="39409">
<Points>
<DataArray  type="Float64"  NumberOfComponents="3"  format="ascii">7.1769 4.82493 0  7.15599 4.841 0  7.13689 4.8551 0  7.1158 4.86986 0  7.09545 4.8833 0  7.0735 4.89909 0  7.2004 4.80826 0  7.2192 4.79324 0  7.2427 4.77631 0  7.2615 4.76004 0  7.2803 4.7447 0  7.2991 4.72921 0  7.31718 4.7141 0  7.33791 4.7 0  7.35423 4.6812 0  7.4495 4.58896 0  7.4683 4.56902 0  7.48701 4.5496 0  7.5039 4.5308 0  7.52 4.51291 0  7.53648 4.4932 0  7.5529 4.47481 0  7.17401 4.79802 0  7.15325 4.81426 0  7.13467 4.82894 0  7.11397 4.84383 0  7.09237 4.85558 0  7.07198 4.87138 0  7.05309 4.9115 0  7.05196 4.88634 0  7.0312 4.92685 0  7.0077 4.94116 0  7.19575 4.78239 0  7.21754 4.76837 0  7.23886 4.75218 0  7.25562 4.73534 0  7.27434 4.71992 0  7.29305 4.70439 0  7.3743 4.66399 0  7.3931 4.64533 0  7.4119 4.62616 0  7.4307 4.6086 0  7.31147 4.68903 0  7.32976 4.67219 0  7.34743 4.65373 0  7.56907 4.4556 0  7.58329 4.4368 0  7.59837 4.418 0  7.61305 4.3992 0  7.42335 4.581 0  7.44078 4.56169 0  7.47657 4.5264 0  7.45879 4.54253 0  7.49593 4.50844 0  7.51006 4.48936 0  7.52531 4.46995 0  7.54154 4.45075 0  7.1155 4.82061 0  7.16987 4.77069 0  7.14788 4.78758 0  7.12908 4.8052 0  7.09123 4.82654 0  7.06881 4.84355 0  7.04978 4.8604 0  7.02821 4.8991 0  7.03421 4.87544 0  7.00476 4.91014 0  6.9842 4.95543 0  6.9607 4.96994 0  6.93934 4.982 0  6.9184 4.99413 0  6.8949 5.0077 0  6.98145 4.92568 0  6.87443 5.0196 0  6.8526 5.03151 0  6.8291 5.04427 0  6.80549 5.0572 0  6.7821 5.06881 0  6.7586 5.08225 0  6.7351 5.09287 0  6.7116 5.10521 0  6.6881 5.11648 0  7.19272 4.75504 0  7.21665 4.74609 0  7.23042 4.72455 0  7.24824 4.71067 0  7.26973 4.69518 0  7.28646 4.67889 0  7.36559 4.63485 0  7.38342 4.61517 0  7.40426 4.59902 0  7.30423 4.66219 0  7.32137 4.64451 0  7.33935 4.62565 0  7.6281 4.379 0  7.6422 4.35929 0  7.6563 4.34009 0  7.67443 4.3193 0  7.55814 4.43199 0  7.57462 4.4151 0  7.59006 4.39525 0  7.60188 4.37551 0  7.4009 4.57326 0  7.41396 4.55444 0  7.4307 4.5342 0  7.47493 4.50372 0  7.44923 4.51424 0  7.485 4.48594 0  7.49758 4.46571 0  7.51313 4.44582 0  7.53056 4.42631 0  7.16772 4.73996 0  7.10435 4.80157 0  7.14271 4.7603 0  7.12093 4.78085 0  7.08185 4.80093 0  7.06371 4.81511 0  7.04358 4.832 0  7.02383 4.85045 0  7.00539 4.87652 0  6.97813 4.89407 0  6.95911 4.94168 0  6.93971 4.95578 0  6.91804 4.97033 0  6.89554 4.98171 0  6.87489 4.99508 0  6.95463 4.91127 0  6.85249 5.00745 0  6.82973 5.01717 0  6.80615 5.02883 0  6.78262 5.04136 0  6.75883 5.05356 0  6.73538 5.06548 0  6.71171 5.07745 0  6.66736 5.1277 0  6.6889 5.09005 0  6.66857 5.10307 0  7.6892 4.29795 0  7.78096 4.1407 0  7.70249 4.277 0  7.7691 4.16195 0  7.75678 4.183 0  7.7174 4.25497 0  7.72912 4.23 0  7.74292 4.2065 0  7.7926 4.11952 0  7.19623 4.72095 0  7.22149 4.69784 0  7.24709 4.68864 0  7.26072 4.66745 0  7.27958 4.65508 0  7.35596 4.60523 0  7.37586 4.58123 0  7.29133 4.63183 0  7.31613 4.62148 0  7.32791 4.59966 0  7.61643 4.3556 0  7.63282 4.3371 0  7.64817 4.3144 0  7.6624 4.29423 0  7.5494 4.40779 0  7.56853 4.39535 0  7.57509 4.37324 0  7.58865 4.35111 0  7.38542 4.55004 0  7.40218 4.5263 0  7.41892 4.50587 0  7.45946 4.48569 0  7.43505 4.48835 0  7.46877 4.46262 0  7.48316 4.44059 0  7.50057 4.42157 0  7.52053 4.39994 0  7.156 4.70458 0  7.1408 4.73494 0  7.09057 4.77616 0  7.10931 4.74763 0  7.05941 4.78525 0  7.0402 4.80507 0  7.01422 4.81688 0  6.99401 4.83891 0  6.97269 4.86114 0  6.94968 4.87903 0  6.93339 4.92954 0  6.91887 4.94835 0  6.89523 4.95505 0  6.87181 4.96799 0  6.85528 4.98657 0  6.92596 4.8974 0  6.83142 4.99095 0  6.80584 4.99996 0  6.78413 5.01302 0  6.73529 5.0367 0  6.75899 5.02675 0  6.71146 5.04906 0  6.68777 5.06204 0  6.6458 5.13871 0  6.62098 5.1512 0  6.5988 5.16279 0  6.64597 5.11434 0  6.66562 5.07608 0  6.64892 5.09369 0  6.57429 5.1747 0  6.5518 5.18561 0  6.5283 5.19672 0  7.67678 4.27344 0  7.65342 4.27244 0  7.76791 4.12016 0  7.75605 4.13966 0  7.68816 4.2524 0  7.74189 4.16147 0  7.72738 4.18138 0  7.70047 4.22914 0  7.71326 4.20492 0  7.8038 4.0984 0  7.81472 4.0749 0  7.77971 4.09887 0  7.86109 3.9809 0  7.18253 4.67983 0  7.22404 4.66203 0  7.25454 4.63507 0  7.27021 4.60915 0  7.34119 4.57632 0  7.35416 4.54866 0  7.29325 4.59534 0  7.31287 4.5746 0  7.13581 4.66432 0  7.60481 4.33106 0  7.62389 4.31457 0  7.63238 4.28784 0  7.54401 4.37792 0  7.5587 4.35201 0  7.57738 4.3254 0  7.36708 4.51353 0  7.39328 4.49781 0  7.40977 4.47505 0  7.43809 4.4633 0  7.4493 4.43448 0  7.46959 4.41333 0  7.49389 4.39733 0  7.50474 4.36871 0  7.10704 4.69993 0  7.06136 4.74104 0  7.02006 4.77609 0  6.94628 4.8503 0  6.98557 4.80104 0  6.96211 4.8272 0  6.92021 4.85963 0  6.90174 4.92376 0  6.86584 4.93962 0  6.83822 4.96125 0  6.88978 4.87871 0  6.80696 4.9733 0  6.78034 4.98216 0  6.76196 5.00183 0  6.71202 5.019 0  6.73503 5.00634 0  6.68661 5.03366 0  6.66135 5.04676 0  6.62341 5.12492 0  6.60062 5.13791 0  6.57598 5.1491 0  6.62498 5.09806 0  6.63497 5.0685 0  6.55217 5.15776 0  6.52795 5.1681 0  6.5048 5.20905 0  6.4813 5.2194 0  6.45602 5.2311 0  6.50367 5.17943 0  8.175240000000001 2.9281 0  8.17483 2.9046 0  8.17423 2.8811 0  8.174060000000001 2.8576 0  8.17165 2.8341 0  7.66054 4.25141 0  7.6336 4.25542 0  7.75902 4.10052 0  7.7333 4.1392 0  7.74084 4.11642 0  7.6704 4.2277 0  7.71251 4.15331 0  7.69687 4.17903 0  7.68277 4.20345 0  7.85116 4.0044 0  7.83862 4.0279 0  7.82746 4.0514 0  7.78904 4.07645 0  7.80125 4.05338 0  7.76369 4.07955 0  7.88387 3.9104 0  7.86962 3.9574 0  7.8772 3.93447 0  7.83694 3.9834 0  7.84642 3.96163 0  7.9125 3.8399 0  7.9007 3.86401 0  7.89251 3.8869 0  7.9242 3.81828 0  7.93714 3.7929 0  7.94966 3.7694 0  7.96124 3.7459 0  7.9712 3.72394 0  7.9806 3.7023 0  7.99072 3.6801 0  8.001659999999999 3.6566 0  8.087149999999999 3.4216 0  8.133559999999999 3.2571 0  8.095409999999999 3.3981 0  8.16422 3.0926 0  8.17474 2.9516 0  8.174110000000001 2.9751 0  8.166729999999999 3.0691 0  8.172639999999999 2.9986 0  8.170400000000001 3.0456 0  8.171239999999999 3.0221 0  7.17467 4.63462 0  7.21672 4.6218 0  7.23833 4.59746 0  7.26321 4.58321 0  7.31987 4.54885 0  7.33555 4.522 0  7.28125 4.55496 0  7.078 4.64761 0  7.11655 4.61904 0  7.14452 4.58878 0  7.59744 4.29841 0  7.60567 4.26319 0  7.5245 4.34575 0  7.54874 4.32635 0  7.55631 4.29734 0  7.33584 4.49112 0  7.36847 4.46828 0  7.40618 4.43358 0  7.43005 4.39967 0  7.46198 4.37186 0  7.48449 4.33447 0  7.04196 4.68162 0  7.00114 4.7206 0  6.97852 4.76275 0  6.92582 4.82296 0  6.94354 4.78428 0  6.88373 4.8294 0  6.85821 4.90133 0  6.82739 4.92231 0  6.80779 4.94706 0  6.85047 4.85705 0  6.77763 4.95422 0  6.68923 5.00653 0  6.74478 4.97187 0  6.70805 4.98747 0  6.63119 5.02825 0  6.66197 5.01202 0  6.59914 5.10863 0  6.58045 5.12778 0  6.55443 5.13039 0  6.59803 5.07802 0  6.6056 5.04652 0  6.528 5.13892 0  6.50252 5.14969 0  6.43421 5.2405 0  6.48009 5.19136 0  6.45715 5.20361 0  6.43649 5.2163 0  6.47803 5.16133 0  6.4108 5.25202 0  8.17079 2.8106 0  8.167149999999999 2.7871 0  8.154590000000001 2.93955 0  8.154109999999999 2.91651 0  8.15418 2.89326 0  8.153309999999999 2.87014 0  8.151289999999999 2.84913 0  8.149430000000001 2.82814 0  7.6399 4.22787 0  7.60964 4.22977 0  7.73817 4.08677 0  7.71461 4.12536 0  7.71671 4.10318 0  7.69331 4.13276 0  7.6504 4.20218 0  7.68013 4.15337 0  7.6652 4.17775 0  7.82434 4.00569 0  7.81248 4.02823 0  7.77107 4.05359 0  7.78856 4.03239 0  7.73981 4.05725 0  7.86843 3.89261 0  7.86032 3.91613 0  7.85377 3.9396 0  7.81516 3.98384 0  7.82305 3.96326 0  7.83403 3.94522 0  7.8965 3.81729 0  7.88316 3.84225 0  7.87622 3.86812 0  7.85458 3.87668 0  7.90753 3.79329 0  7.87802 3.79373 0  7.9333 3.74821 0  7.91938 3.76881 0  7.94615 3.72557 0  7.92535 3.72614 0  7.95529 3.70353 0  7.9654 3.68124 0  8.01069 3.6331 0  8.01989 3.6096 0  7.97586 3.65705 0  7.98482 3.63413 0  8.05498 3.5156 0  8.029820000000001 3.5861 0  8.03876 3.5626 0  8.04772 3.5391 0  8.030720000000001 3.51946 0  8.080640000000001 3.4451 0  8.072329999999999 3.4686 0  8.06363 3.4921 0  8.0641 3.42609 0  8.07094 3.40327 0  8.16114 3.1161 0  8.156940000000001 3.1396 0  8.138909999999999 3.2336 0  8.15274 3.1631 0  8.144220000000001 3.2101 0  8.14855 3.1866 0  8.10263 3.3746 0  8.10993 3.3511 0  8.115780000000001 3.3276 0  8.122439999999999 3.3041 0  8.12876 3.2806 0  8.10966 3.26397 0  8.11359 3.24102 0  8.078049999999999 3.37987 0  8.14321 3.07889 0  8.141349999999999 3.10148 0  8.15352 2.96247 0  8.15235 2.9842 0  8.145149999999999 3.05572 0  8.15104 3.00933 0  8.14743 3.03243 0  7.19201 4.57985 0  7.23443 4.55731 0  7.2971 4.50674 0  7.25047 4.51791 0  7.02161 4.61732 0  7.06736 4.59854 0  7.09621 4.56242 0  7.14317 4.54799 0  7.56834 4.26623 0  7.58264 4.23842 0  7.51214 4.30231 0  7.53449 4.27134 0  7.31111 4.44476 0  7.35601 4.42209 0  7.37649 4.38318 0  7.40713 4.35132 0  7.43696 4.31869 0  7.46789 4.29547 0  6.95252 4.58363 0  6.9763 4.65998 0  6.93501 4.72433 0  6.90184 4.77571 0  6.85805 4.78593 0  6.8346 4.81522 0  6.81401 4.88663 0  6.78449 4.91855 0  6.81425 4.84579 0  6.73904 4.92209 0  6.67455 4.97849 0  6.70206 4.94517 0  6.59506 5.01185 0  6.62898 4.98162 0  6.56515 5.09576 0  6.52968 5.10747 0  6.56876 5.04596 0  6.50118 5.12005 0  6.47599 5.13011 0  6.41366 5.22638 0  6.41804 5.20392 0  6.45471 5.17425 0  6.43421 5.18919 0  6.45079 5.1429 0  6.3873 5.26213 0  6.3906 5.23532 0  6.3638 5.27155 0  6.3403 5.28103 0  6.3168 5.29122 0  6.2933 5.29956 0  6.2698 5.30896 0  8.119630000000001 2.5051 0  8.164619999999999 2.7636 0  8.1614 2.7401 0  8.15827 2.7166 0  8.156560000000001 2.6931 0  8.15221 2.6696 0  8.147919999999999 2.6461 0  8.145910000000001 2.6226 0  8.12731 2.5286 0  8.131930000000001 2.5521 0  8.14226 2.5991 0  8.137460000000001 2.5756 0  8.143140000000001 2.80375 0  8.14217 2.77806 0  8.136570000000001 2.94954 0  8.133369999999999 2.92906 0  8.13245 2.90452 0  
[...]
<CellData  Scalars="f_5143"> 
<DataArray  type="Float64"  Name="f_5143"  format="ascii">2.1198636679690810e-05   1.6764188843790083e-05   1.8769579190810316e-05   1.2783862487802653e-05   1.4771647017824498e-05   1.1608320302773162e-05   1.3726674719199203e-05   9.8081486729183757e-06   1.1882837425369628e-05   7.8970496990611074e-06   9.7639245359477329e-06   4.7022431260573420e-06   6.9628965263388193e-06   1.8975839188089442e-05   2.1735441791907752e-05   2.1958641668123677e-05   2.0664446994764063e-05   1.9186394798454896e-05   2.1699779559852252e-05   2.0535083108123227e-05   1.9243636379796545e-05   2.0202903895205338e-05   2.0771698908820986e-05   1.8684310649204869e-05   2.0108610657075790e-05   1.9148003055656067e-05   1.8627544121798006e-05   1.7995555329503407e-05   2.0003286234360376e-05   1.6992801858794271e-05   1.6636381105333555e-05   5.8755629963273691e-06   3.6763115105503015e-06   4.3567467455404212e-06   5.6908670272002303e-07   1.7974172120090358e-06   1.0163104418896342e-06   2.5032544912315936e-06   1.2672688152583515e-07   2.5297910894111986e-07   2.1587650390532527e-07   3.8216919667730956e-08   8.2899353004724925e-07   3.4463453864718895e-07   1.9958412375198398e-06   1.2261907351614639e-06   1.0903964887594512e-05   2.2119709861691705e-05   1.9796004177199200e-05   2.2555504418341887e-05   1.4430013355540272e-05   1.7841794634364105e-05   1.0730314808196242e-05   1.2712634242635284e-05   1.3861253233269432e-05   1.0318843397421145e-05   1.3513333021692693e-05   7.1510047428280876e-06   9.1554000952518369e-06   4.1121193072480780e-06   5.4705437749433314e-06   4.5709796144212599e-06   5.3021371018031671e-06   3.0887370837101216e-06   4.3132018529000470e-06   2.0759336518977983e-06   3.0314540219814106e-06   2.2596466824148455e-05   2.4459002839585118e-05   1.8073068666634791e-05   2.0876991833273099e-05   2.2868021746954960e-05   2.0721570336681796e-05   2.1203707444169259e-05   2.0643502730641393e-05   1.8957334079377726e-05   2.2382690376839745e-05   1.9026790191613155e-05   1.8537503786676491e-05   1.5194114875471896e-05   1.6097699287626375e-05   1.2779444028092509e-05   1.3669006858599970e-05   8.1731557794127199e-06   6.9404763220471486e-06   1.0217117740373153e-05   1.8781210132914428e-05   1.9289263120078214e-05   1.7605965839185554e-05   1.8014434948677065e-05   1.5428893253262527e-05   1.6525467835713144e-05   3.1373462689696534e-06   2.5403391769043985e-06   4.3875349799483413e-06   3.5657198913517794e-06   6.1113058539471846e-06   5.4839476313304113e-06   9.4864884852045773e-06   7.3129953755352918e-06   5.7130021495918510e-06   4.4041571402433984e-06   4.2838090133059211e-06   2.6366933491797578e-06   3.5069671662449295e-06   1.6636054913381542e-07   1.0894931805578175e-06   6.5519738123120698e-07   1.9417009685054141e-06   1.7545678186866086e-08   5.2616219699966488e-08   3.4932764879363319e-07   1.5827953753636977e-07   1.2656990498937522e-06   7.4972020356032946e-07   2.6318985142381582e-06   1.9355550104836641e-06   2.6732111174173509e-05   1.2120145357924130e-05   1.2711916930320645e-05   2.3537183686053200e-05   2.9847307701369434e-05   1.8910701141872385e-05   2.3210621865870928e-05   1.6442863042290837e-05   1.5757787150994510e-05   1.5752169024640043e-05   1.4569298955961211e-05   1.1551793000593547e-05   1.3433383672883738e-05   7.8913791907797985e-06   1.0815111974846098e-05   5.6785410244317120e-06   7.5994268760350512e-06   8.1224829493499343e-06   4.9021994335889050e-06   7.2840338377510208e-06   1.8102566794223750e-06   1.8558719312496554e-06   1.8295008792990498e-06   1.4483748506797478e-06   2.5437185120994185e-06   1.8433490758814278e-06   4.7347436837143384e-06   2.7284397613970515e-06   5.5007172754230360e-06   4.1495856524162677e-06   4.0443798942111373e-06   4.6340400611310694e-06   7.9840581840293974e-06   6.0203718219435085e-06   1.2539865426891183e-05   8.2846544054683882e-06   1.6651048628065638e-05   1.2527667253914730e-05   1.9428776149055027e-05   1.6486031327744182e-05   2.4009881831879030e-05   1.9579725800549131e-05   2.6171692096801284e-05   2.3759499733816425e-05   2.9464384163202519e-05   2.6048753847451719e-05   3.0013661891873588e-05   2.8339110255276962e-05   2.5632831471764241e-05   2.5643639818509265e-05   3.1279742823185215e-05   2.8652560894566137e-05   3.5483631648424570e-05   2.2913184597916687e-05   3.4472873347838294e-05   1.8091672859068294e-05   2.2765235903544166e-05   2.1665331304746438e-05   2.0305567558065517e-05   1.7637316875747241e-05   1.8714630666744187e-05   1.3665337220331592e-05   1.4274669571490484e-05   1.1804001027481517e-05   8.6380203696380841e-06   1.3795275412515396e-05   2.2434399726037120e-05   2.0023599933247582e-05   1.3265237202305255e-05   1.8357719388172873e-05   1.4683004605347379e-05   1.3143156467256248e-05   1.1362593631472516e-05   1.0531047496183493e-05   1.1943266311988943e-05   1.1983709104375623e-05   1.7963780195448022e-05   1.5508590272541414e-05   1.9756474077440467e-05   1.8371622023192107e-05   3.9523567005333281e-06   3.5030764532820196e-06   4.4715345395853450e-06   3.8537373894142407e-06   7.8124002215032814e-06   6.0492851189744600e-06   1.1267005575892323e-05   1.0195564915057695e-05   5.5598971395903979e-06   8.2410693621287856e-06   4.4125029751479800e-06   6.0782097351855002e-06   2.7012497517529308e-06   3.6623925760917621e-06   2.9128917057648513e-07   7.7272536957418187e-07   2.0345405102228772e-06   1.3076605147938949e-06   5.4081853225924943e-07   5.5432286485161462e-07   1.2820828918215354e-06   1.0564601860826964e-06   2.5040696902422059e-06   1.8752503339030966e-06   4.4461389906703671e-06   3.8792620180819118e-06   4.9343193466272962e-05   2.5797121901351860e-05   3.4449202421143447e-05   2.2703648587245925e-05   1.5319597473390034e-05   3.4595000944634443e-05   3.2124256991968355e-05   3.0889582805607995e-05   1.6133578770072361e-05   2.1570233931408162e-05   1.3902056372361015e-05   1.6815205952422719e-05   1.6626559777050654e-05   1.6814611531186186e-05   1.5881168833907855e-05   1.5317735538813944e-05   1.1239109957249256e-05   1.3420907023248759e-05   8.0665563078893761e-06   8.8416100877783403e-06   3.1976434649257937e-06   3.4437994510259109e-06   2.8359815395169278e-06   2.3787883608252762e-06   5.0315570395085145e-06   3.1546198524564714e-06   6.8750709522379088e-06   5.2804920709218725e-06   6.4024264971286073e-06   5.7781564521054150e-06   7.3407417319349683e-06   7.3919212242274421e-06   1.1205146954109904e-05   7.2633745542326135e-06   1.6902096762523760e-05   1.2706402991853861e-05   1.9345808757892568e-05   1.5530764129036750e-05   2.7669413639764610e-05   2.2610419523618748e-05   2.0618904838146234e-05   2.2416083001068421e-05   3.1015357271584997e-05   2.7948503982538405e-05   3.2837131836848714e-05   3.0870484346334484e-05   2.8147582275125201e-05   2.7793402390043693e-05   3.1392809985842274e-05   3.1826824474481800e-05   2.4037586798249847e-05   2.6873455669081591e-05   1.9988945281398068e-05   2.0669489013891214e-05   1.6831580285227966e-05   1.6351080525680985e-05   1.8456118279948587e-05   1.7580132217463609e-05   2.4730162547366092e-05   2.1378594571813903e-05   2.0833182889706345e-05   2.2421569920402637e-05   2.6613673876287597e-05   2.3627548116898941e-05   2.6823643631798812e-05   2.7584422266306230e-05   2.7179301479386067e-05   2.8797073290927264e-05   2.8146351562935167e-05   1.4619164260791458e-05   1.7055720641856778e-05   5.6196483245643495e-05   5.9775604106122557e-05   3.3452898778874971e-05   3.3961026817234159e-05   6.1673806070143932e-05   2.8191873291380513e-05   2.4203040958321755e-05   4.3803494214299571e-05   3.0115311721266769e-05   1.6296686238355842e-05   1.4468457692673740e-05   1.5871938556476913e-05   1.3932238837723206e-05   2.1798535295262665e-05   2.5148508736426209e-05   2.5325077440648104e-05   1.5555582241015542e-05   2.0600425355909416e-05   7.3249982055605174e-05   1.3957245993132208e-05   1.2923022499227851e-05   1.4536012261930418e-05   1.4022037623076133e-05   2.1223677033672662e-05   1.9013367617126694e-05   1.9411063737693056e-05   7.7720725192755166e-06   6.3708434755812394e-06   7.1515318805408937e-06   1.0726343971618289e-05   1.0128849594348292e-05   1.3650417988530579e-05   1.4875307823865446e-05   1.0971087329509674e-05   1.3638127420183338e-05   4.4554080022311322e-06   8.2659376142002811e-06   3.2127938581711074e-06   4.2886332489954173e-06   1.5575259784767787e-06   1.5076706208893146e-06   2.9623793864565370e-06   2.5896488869633575e-06   2.8029191100265930e-06   3.2461769042029186e-06   3.4883314879636250e-06   3.9338379495579040e-06   3.9411590924866601e-06   1.1472336198862156e-05   7.2638617977946544e-06   6.0020007380118866e-05   8.4229959332683533e-05   7.1725236484813200e-05   5.8281563999246570e-05   9.0837503157918336e-05   4.2465662944339345e-05   2.8953864887357840e-05   2.4170433550837000e-05   5.6725889365949406e-05   1.0764529937526657e-05   2.1781988248221314e-05   3.3023864067654794e-05   1.7832207669180068e-05   2.1678253813153828e-05   1.1962071650377151e-05   1.3820756098787119e-05   1.1413511173061584e-05   5.7200896681035014e-06   5.9215564432514331e-06   7.2562948624590661e-06   9.7322771700519121e-06   9.7786510515989917e-06   1.1418967960340694e-05   1.2159459371014309e-05   1.1832546926142355e-05   1.9833938029511370e-05   1.6471290638350431e-05   1.6433205154975717e-05   1.6058712013456300e-05   2.1584668139189183e-05   1.7253097735256319e-05   2.0541346978061018e-05   1.9334139079001982e-05   3.2852262699349161e-05   2.9669982515214403e-05   2.3177232159081881e-05   2.8731087731386171e-05   3.5320558783032947e-05   3.4927195848015071e-05   3.9439055221371827e-05   3.7495090684666007e-05   3.4285506420099209e-05   2.9185985155847978e-05   2.9442705742618998e-05   3.1136373932647387e-05   3.3538779336177586e-05   3.2715352110124499e-05   3.4210198150332940e-05   2.6671605312373568e-05   3.8368350919215591e-05   3.9327064424056508e-05   4.8230572905585186e-05   3.3892229292961462e-05   3.2709382060182843e-05   3.5769499286558870e-05   3.6332573770654399e-05   3.5846868043929598e-05   3.6780825836796812e-05   2.1296995769014731e-05   1.8273293030644162e-05   1.9083099149386940e-05   2.2886273913322428e-05   1.4133608687670556e-05   1.9139021498266001e-05   2.0661420575402705e-05   1.7848933061950148e-05   2.0815824258309596e-05   2.7234782314432877e-05   2.6060523078424184e-05   2.8127256029794584e-05   2.2850951751579064e-05   3.0149343943200752e-05   3.4740794376780782e-05   2.9839239454260338e-05   3.2322697659418971e-05   3.0741946262724647e-05   1.5285291367757507e-05   1.6377173181234675e-05   1.3686413285401359e-05   1.5661363292858898e-05   1.6652445536181386e-05   1.5145477560119460e-05   8.2946501514822494e-06   7.1408232053446675e-06   8.2245325239655364e-06   8.6372379253377393e-05   9.4627372585663521e-05   5.7642328441478016e-05   8.2829596270697276e-05   3.8680242854318661e-05   4.7037127257983032e-05   2.2317284860768918e-05   2.7284896521759352e-05   1.8397590761455844e-05   1.5572084387679559e-05   1.7001175062790536e-05   1.5068505461934153e-05   2.5259519014479387e-05   3.0188626783097795e-05   3.2089741598560898e-05   1.3693412669009932e-04   1.2338911566953296e-04   1.2525570220060277e-04   1.1665846916588868e-04   2.4212504432684619e-05   1.9526343842337004e-05   2.1201682183267740e-05   3.6850829834092217e-05   2.9520045321641698e-05   1.4236489799034312e-05   1.3742328171315880e-05   1.4767269334774817e-05   1.4141585599285588e-05   2.9807488475706313e-05   1.9857761691479271e-05   1.5311605456879981e-05   9.6157350359058054e-06   1.3537384388616807e-05   1.9721181909859551e-05   7.4791791270975618e-06   7.6851740379483257e-06   1.6176795816416240e-05   7.9940582819467296e-06   1.1354543372751599e-05   9.9377042091377175e-06   1.2822590884554615e-05   1.4150462538770951e-05   1.8318816492763906e-05   2.1323100202178785e-05   1.6954283402678582e-04   1.4417640394595122e-04   1.3742734143682689e-04   1.1915611901502395e-04   4.7618177914585256e-05   6.8278386767337937e-05   1.9464304194195033e-05   1.5854238407635672e-05   4.0834929613284119e-05   4.3107862305728076e-05   3.1679144789071072e-05   3.2133623805871459e-05   3.2399527260199761e-05   2.1765759487137737e-05   2.4228244375343572e-05   2.6399996619257440e-05   2.1298340572075416e-05   2.0683247590202699e-05   2.0005275404733858e-05   3.3668907871852894e-05   3.4703077068460462e-05   2.3683084169661780e-05   1.9583942505958501e-05   3.3637012113788173e-05   3.1643310722780224e-05   3.4389768110411036e-05   2.9785172019619757e-05   3.6382959963594657e-05   4.4730735422238922e-05   3.1431077428140503e-05   7.0305117874333299e-05   4.9542820768443263e-05   3.7565864258314346e-05   6.0292829138860263e-05   4.0820545345954124e-05   3.9139196666703836e-05   2.7919718333515122e-05   3.4074983875874746e-05   3.7558159854241289e-05   3.2105754968442619e-05   5.0730390197470211e-05   6.0088975350943394e-05   6.7489780321278774e-05   7.0915681623830249e-05   4.1426549601823334e-05   4.1839595297415716e-05   4.1749087714854582e-05   4.3466531206310093e-05   3.2123311258954263e-05   3.5827979185919008e-05   3.0415613770935293e-05   3.1486011005381234e-05   2.1178662583054865e-05   2.4948410592117922e-05   3.9697786549860091e-05   4.2012074387550946e-05   1.0437008089234191e-05   1.1249821806472911e-05   8.8408170874248861e-06   1.1589836419315882e-05   9.5495381219207565e-06   1.2693427787644154e-05   1.0304981043784980e-05   1.4087344171246321e-05   1.0998546980360828e-05   1.5101520566817183e-05   1.1980548444355733e-05   2.7765771787321832e-05   2.8268309474972326e-05   3.1395237190863799e-05   3.5012570936393136e-05   1.7630040192859521e-05   2.2937921539752765e-05   2.0972147183176334e-05   2.3806650795234477e-05   2.4716460866393051e-05   2.6868817405508213e-05   2.4588643516790127e-05   3.3016739749463085e-05   3.3265894241073085e-05   3.6153796139070154e-05   3.0428553952459218e-05   3.4003523607237673e-05   3.6047811462151965e-05   3.5918468266518115e-05   1.0805122333451267e-05   1.0535020655749927e-05   1.2281078660320861e-05   1.2275277047488214e-05   1.5427004507023559e-05   1.9882523639820368e-05   2.1415839248435569e-05   1.4139875448714043e-05   1.8548230744404852e-05   2.6648807661253645e-05   2.9847280724651496e-05   8.1257971966798335e-06   7.5358612453456234e-06   8.1327334673500588e-06   6.8075381445098968e-06   8.0492250170565830e-06   7.5100754153090558e-06   9.9496099834544966e-06   9.1523596808087251e-06   9.3161389946980147e-06   6.8224840660078417e-06   7.7463829884030477e-06   1.4871357154157623e-05   1.4238352500323932e-05   1.4948394787831540e-05   9.3768620779394090e-06   1.1559638878609618e-05   9.3753063922404305e-06   9.0044976130587541e-06   2.1361998783559748e-05   1.6543752676583851e-05   2.0687805821895126e-05   2.3975362898215042e-05   2.3971466633335753e-05   2.1108824128554993e-05   2.0715826622463934e-05   2.3048688324393675e-05   2.3042969106647182e-05   1.9915520143864725e-05   2.5826568021607346e-05   2.3294577390975642e-05   2.9273710082856656e-05   2.6645913643590833e-05   3.4998693913173964e-05   3.1973380138149962e-05   3.7446715783006631e-05   3.4201258924979473e-05   3.9778133725191061e-05   3.4381204441445579e-05   3.4008685002739505e-05   3.3269929857651058e-05   2.1158602750382747e-05   2.0188037929996242e-05   2.0057788871212624e-05   3.2514415374939191e-05   3.4226172517851710e-05   1.0966599245998832e-05   1.1072475569136023e-05   8.9481998959507490e-06   1.0267814455408387e-05   8.1569639079377710e-06   1.0068933177422501e-05   7.5290877209268107e-06   1.1224765341553150e-05   8.6998815312819963e-06   9.7821896742865484e-06   8.3620986027387421e-06   1.1002745828594899e-05   8.0074922118906880e-06   8.8887928984431225e-06   6.8055459873892207e-05   9.6313952624202813e-05   1.3042001269571656e-04   4.5979464505947610e-05   4.0647916728062235e-05   7.8740859637880067e-05   3.0053471665016138e-05   2.5782378259942267e-05   4.6408351813660893e-05   6.4874588388976135e-05   6.3950504262894661e-05   1.8099941251199461e-04   1.3397676492110541e-04   1.5521912643421673e-04   1.3669299826595400e-04   1.4553109110727888e-04   1.0451753010721320e-04   1.2046159798614617e-04   4.0271709190362612e-05   3.9039229406235019e-05   3.6064458645521185e-05   3.2704506584007623e-05   2.7618861140318544e-05   3.0216790733311548e-05   3.2049247297127984e-05   3.0783205783064769e-05   3.4485053759654049e-05   3.7983107223646281e-05   5.3495925399618000e-05   2.6301752886132749e-05   4.2245511875308748e-05   2.7484536881174934e-05   3.0007527627790223e-05   3.0670580133206281e-05   3.2603285206413383e-05   3.7613438102899526e-05   4.1059652327121683e-05   3.8203396335993823e-05   3.4929556787173019e-05   1.8654730207669625e-04   2.1306616015801446e-04   2.9448942933902879e-04   8.1160598330612245e-05   1.1728391136369781e-04   1.7820012792165715e-04   5.5261248440661196e-05   7.5334384937829368e-05   4.9747810413563476e-05   6.9683195117915752e-05   5.1943316926552887e-05   4.6964994995807276e-05   3.6387675381041080e-05   3.3716040552523837e-05   2.9793085476950727e-05   3.5477993225837418e-05   3.0585247869580797e-05   4.3543952030646923e-05   3.3970089879879067e-05   6.8121746576156901e-05   5.0956226907979471e-05   4.2089854333267464e-05   4.6355214585721417e-05   7.8624433552568302e-05   6.5369345797856201e-05   7.7435978636456086e-05   7.2592170151600599e-05   9.2949326082254386e-05   8.4779501049586284e-05   1.0413936082301812e-04   5.6462159370981184e-05   5.5375552506058324e-05   6.4437830577692933e-05   5.2187654493014716e-05   7.1048227139523581e-05   1.0747275190868804e-04   7.6763363642355699e-05   8.6200096652842815e-05   4.8061123794517836e-05   5.5959326357984749e-05   4.7450170151956748e-05   4.7344927387377842e-05   2.2217145870715247e-05   2.2567649060720954e-05   2.0625847841640485e-05   3.5891141152802153e-05   3.9319235137980980e-05   2.7990030525233879e-05   3.2588118582424100e-05   2.2497416777811564e-05   4.4622005824529153e-05   4.8852523215156116e-05   2.2203831065160592e-05   2.2719006609251304e-05   1.9827425225399941e-05   1.8347727367393196e-05   1.9568480391762041e-05   2.0030168884636215e-05   6.9838851556973146e-06   8.9101081157035332e-06   5.8088194768591245e-06   1.0148686897919226e-05   8.1574948900317884e-06   8.8745058545680099e-06   7.7021259431832049e-06   1.1180637818476182e-05   8.4479790746817365e-06   1.1484176449221515e-05   1.0372101850595617e-05   1.1070619308768758e-05   9.0472790702459177e-06   3.8474554052004713e-05   3.7410733070351034e-05   4.5161582025421819e-05   3.9652853912755737e-05   4.1794476540996219e-05   3.8896797680436273e-05   2.4243980361185774e-05   3.8981035325283888e-05   2.6844449997587559e-05   3.4269266050736617e-05   3.3832065224182843e-05   4.5777450111060632e-05   4.7668654403064328e-05   3.2668318856412417e-05   4.1304335284066451e-05   4.0892999218697687e-05   1.7822434379226852e-05   1.4779497552931498e-05   1.9944427138714668e-05   2.8931753116954143e-05   2.9510090990948527e-05   3.9542262890185426e-05   5.8943209850360377e-05   6.6017200906077759e-05   1.0237691798801867e-05   9.2261576289805142e-06   9.3012923872795486e-06   1.1596341483603880e-05   8.4336491843218189e-06   1.2669330511650289e-05   2.0698006701453016e-05   1.0065511349800593e-05   1.0935689956248480e-05   1.8013862089162767e-05   1.9460526307563029e-05   2.0593839231391514e-05   1.6629140507025112e-05   1.9936026696513425e-05   1.3799530696849433e-05   1.3875547397895829e-05   1.2565166755381314e-05   2.4903446307514538e-05   2.1918112741951160e-05   2.3201948499547872e-05   2.4578517712380626e-05   2.0910793990341581e-05   2.8377150512790026e-05   2.3845461042127452e-05   2.8236200536263087e-05   2.4874398533135505e-05   1.8128691908918665e-05   2.2536307896594623e-05   2.7068387303429615e-05   3.1509042892282295e-05   2.6633464122834018e-05   2.9899698852323128e-05   2.8562475864613409e-05   4.1573933189067954e-05   3.9278707190