<?xml version="1.0"?>
<VTKFile type="UnstructuredGrid"  version="0.1"  >
<UnstructuredGrid>
<Piece  NumberOfPoints="21266" NumberOfCells="39409">
<Points>
<DataArray  type="Float64"  NumberOfComponents="3"  format="ascii">7.1769 4.82493 0  7.15599 4.841 0  7.13689 4.8551 0  7.1158 4.86986 0  7.09545 4.8833 0  7.0735 4.89909 0  7.2004 4.80826 0  7.2192 4.79324 0  7.2427 4.77631 0  7.2615 4.76004 0  7.2803 4.7447 0  7.2991 4.72921 0  7.31718 4.7141 0  7.33791 4.7 0  7.35423 4.6812 0  7.4495 4.58896 0  7.4683 4.56902 0  7.48701 4.5496 0  7.5039 4.5308 0  7.52 4.51291 0  7.53648 4.4932 0  7.5529 4.47481 0  7.17401 4.79802 0  7.15325 4.81426 0  7.13467 4.82894 0  7.11397 4.84383 0  7.09237 4.85558 0  7.07198 4.87138 0  7.05309 4.9115 0  7.05196 4.88634 0  7.0312 4.92685 0  7.0077 4.94116 0  7.19575 4.78239 0  7.21754 4.76837 0  7.23886 4.75218 0  7.25562 4.73534 0  7.27434 4.71992 0  7.29305 4.70439 0  7.3743 4.66399 0  7.3931 4.64533 0  7.4119 4.62616 0  7.4307 4.6086 0  7.31147 4.68903 0  7.32976 4.67219 0  7.34743 4.65373 0  7.56907 4.4556 0  7.58329 4.4368 0  7.59837 4.418 0  7.61305 4.3992 0  7.42335 4.581 0  7.44078 4.56169 0  7.47657 4.5264 0  7.45879 4.54253 0  7.49593 4.50844 0  7.51006 4.48936 0  7.52531 4.46995 0  7.54154 4.45075 0  7.1155 4.82061 0  7.16987 4.77069 0  7.14788 4.78758 0  7.12908 4.8052 0  7.09123 4.82654 0  7.06881 4.84355 0  7.04978 4.8604 0  7.02821 4.8991 0  7.03421 4.87544 0  7.00476 4.91014 0  6.9842 4.95543 0  6.9607 4.96994 0  6.93934 4.982 0  6.9184 4.99413 0  6.8949 5.0077 0  6.98145 4.92568 0  6.87443 5.0196 0  6.8526 5.03151 0  6.8291 5.04427 0  6.80549 5.0572 0  6.7821 5.06881 0  6.7586 5.08225 0  6.7351 5.09287 0  6.7116 5.10521 0  6.6881 5.11648 0  7.19272 4.75504 0  7.21665 4.74609 0  7.23042 4.72455 0  7.24824 4.71067 0  7.26973 4.69518 0  7.28646 4.67889 0  7.36559 4.63485 0  7.38342 4.61517 0  7.40426 4.59902 0  7.30423 4.66219 0  7.32137 4.64451 0  7.33935 4.62565 0  7.6281 4.379 0  7.6422 4.35929 0  7.6563 4.34009 0  7.67443 4.3193 0  7.55814 4.43199 0  7.57462 4.4151 0  7.59006 4.39525 0  7.60188 4.37551 0  7.4009 4.57326 0  7.41396 4.55444 0  7.4307 4.5342 0  7.47493 4.50372 0  7.44923 4.51424 0  7.485 4.48594 0  7.49758 4.46571 0  7.51313 4.44582 0  7.53056 4.42631 0  7.16772 4.73996 0  7.10435 4.80157 0  7.14271 4.7603 0  7.12093 4.78085 0  7.08185 4.80093 0  7.06371 4.81511 0  7.04358 4.832 0  7.02383 4.85045 0  7.00539 4.87652 0  6.97813 4.89407 0  6.95911 4.94168 0  6.93971 4.95578 0  6.91804 4.97033 0  6.89554 4.98171 0  6.87489 4.99508 0  6.95463 4.91127 0  6.85249 5.00745 0  6.82973 5.01717 0  6.80615 5.02883 0  6.78262 5.04136 0  6.75883 5.05356 0  6.73538 5.06548 0  6.71171 5.07745 0  6.66736 5.1277 0  6.6889 5.09005 0  6.66857 5.10307 0  7.6892 4.29795 0  7.78096 4.1407 0  7.70249 4.277 0  7.7691 4.16195 0  7.75678 4.183 0  7.7174 4.25497 0  7.72912 4.23 0  7.74292 4.2065 0  7.7926 4.11952 0  7.19623 4.72095 0  7.22149 4.69784 0  7.24709 4.68864 0  7.26072 4.66745 0  7.27958 4.65508 0  7.35596 4.60523 0  7.37586 4.58123 0  7.29133 4.63183 0  7.31613 4.62148 0  7.32791 4.59966 0  7.61643 4.3556 0  7.63282 4.3371 0  7.64817 4.3144 0  7.6624 4.29423 0  7.5494 4.40779 0  7.56853 4.39535 0  7.57509 4.37324 0  7.58865 4.35111 0  7.38542 4.55004 0  7.40218 4.5263 0  7.41892 4.50587 0  7.45946 4.48569 0  7.43505 4.48835 0  7.46877 4.46262 0  7.48316 4.44059 0  7.50057 4.42157 0  7.52053 4.39994 0  7.156 4.70458 0  7.1408 4.73494 0  7.09057 4.77616 0  7.10931 4.74763 0  7.05941 4.78525 0  7.0402 4.80507 0  7.01422 4.81688 0  6.99401 4.83891 0  6.97269 4.86114 0  6.94968 4.87903 0  6.93339 4.92954 0  6.91887 4.94835 0  6.89523 4.95505 0  6.87181 4.96799 0  6.85528 4.98657 0  6.92596 4.8974 0  6.83142 4.99095 0  6.80584 4.99996 0  6.78413 5.01302 0  6.73529 5.0367 0  6.75899 5.02675 0  6.71146 5.04906 0  6.68777 5.06204 0  6.6458 5.13871 0  6.62098 5.1512 0  6.5988 5.16279 0  6.64597 5.11434 0  6.66562 5.07608 0  6.64892 5.09369 0  6.57429 5.1747 0  6.5518 5.18561 0  6.5283 5.19672 0  7.67678 4.27344 0  7.65342 4.27244 0  7.76791 4.12016 0  7.75605 4.13966 0  7.68816 4.2524 0  7.74189 4.16147 0  7.72738 4.18138 0  7.70047 4.22914 0  7.71326 4.20492 0  7.8038 4.0984 0  7.81472 4.0749 0  7.77971 4.09887 0  7.86109 3.9809 0  7.18253 4.67983 0  7.22404 4.66203 0  7.25454 4.63507 0  7.27021 4.60915 0  7.34119 4.57632 0  7.35416 4.54866 0  7.29325 4.59534 0  7.31287 4.5746 0  7.13581 4.66432 0  7.60481 4.33106 0  7.62389 4.31457 0  7.63238 4.28784 0  7.54401 4.37792 0  7.5587 4.35201 0  7.57738 4.3254 0  7.36708 4.51353 0  7.39328 4.49781 0  7.40977 4.47505 0  7.43809 4.4633 0  7.4493 4.43448 0  7.46959 4.41333 0  7.49389 4.39733 0  7.50474 4.36871 0  7.10704 4.69993 0  7.06136 4.74104 0  7.02006 4.77609 0  6.94628 4.8503 0  6.98557 4.80104 0  6.96211 4.8272 0  6.92021 4.85963 0  6.90174 4.92376 0  6.86584 4.93962 0  6.83822 4.96125 0  6.88978 4.87871 0  6.80696 4.9733 0  6.78034 4.98216 0  6.76196 5.00183 0  6.71202 5.019 0  6.73503 5.00634 0  6.68661 5.03366 0  6.66135 5.04676 0  6.62341 5.12492 0  6.60062 5.13791 0  6.57598 5.1491 0  6.62498 5.09806 0  6.63497 5.0685 0  6.55217 5.15776 0  6.52795 5.1681 0  6.5048 5.20905 0  6.4813 5.2194 0  6.45602 5.2311 0  6.50367 5.17943 0  8.175240000000001 2.9281 0  8.17483 2.9046 0  8.17423 2.8811 0  8.174060000000001 2.8576 0  8.17165 2.8341 0  7.66054 4.25141 0  7.6336 4.25542 0  7.75902 4.10052 0  7.7333 4.1392 0  7.74084 4.11642 0  7.6704 4.2277 0  7.71251 4.15331 0  7.69687 4.17903 0  7.68277 4.20345 0  7.85116 4.0044 0  7.83862 4.0279 0  7.82746 4.0514 0  7.78904 4.07645 0  7.80125 4.05338 0  7.76369 4.07955 0  7.88387 3.9104 0  7.86962 3.9574 0  7.8772 3.93447 0  7.83694 3.9834 0  7.84642 3.96163 0  7.9125 3.8399 0  7.9007 3.86401 0  7.89251 3.8869 0  7.9242 3.81828 0  7.93714 3.7929 0  7.94966 3.7694 0  7.96124 3.7459 0  7.9712 3.72394 0  7.9806 3.7023 0  7.99072 3.6801 0  8.001659999999999 3.6566 0  8.087149999999999 3.4216 0  8.133559999999999 3.2571 0  8.095409999999999 3.3981 0  8.16422 3.0926 0  8.17474 2.9516 0  8.174110000000001 2.9751 0  8.166729999999999 3.0691 0  8.172639999999999 2.9986 0  8.170400000000001 3.0456 0  8.171239999999999 3.0221 0  7.17467 4.63462 0  7.21672 4.6218 0  7.23833 4.59746 0  7.26321 4.58321 0  7.31987 4.54885 0  7.33555 4.522 0  7.28125 4.55496 0  7.078 4.64761 0  7.11655 4.61904 0  7.14452 4.58878 0  7.59744 4.29841 0  7.60567 4.26319 0  7.5245 4.34575 0  7.54874 4.32635 0  7.55631 4.29734 0  7.33584 4.49112 0  7.36847 4.46828 0  7.40618 4.43358 0  7.43005 4.39967 0  7.46198 4.37186 0  7.48449 4.33447 0  7.04196 4.68162 0  7.00114 4.7206 0  6.97852 4.76275 0  6.92582 4.82296 0  6.94354 4.78428 0  6.88373 4.8294 0  6.85821 4.90133 0  6.82739 4.92231 0  6.80779 4.94706 0  6.85047 4.85705 0  6.77763 4.95422 0  6.68923 5.00653 0  6.74478 4.97187 0  6.70805 4.98747 0  6.63119 5.02825 0  6.66197 5.01202 0  6.59914 5.10863 0  6.58045 5.12778 0  6.55443 5.13039 0  6.59803 5.07802 0  6.6056 5.04652 0  6.528 5.13892 0  6.50252 5.14969 0  6.43421 5.2405 0  6.48009 5.19136 0  6.45715 5.20361 0  6.43649 5.2163 0  6.47803 5.16133 0  6.4108 5.25202 0  8.17079 2.8106 0  8.167149999999999 2.7871 0  8.154590000000001 2.93955 0  8.154109999999999 2.91651 0  8.15418 2.89326 0  8.153309999999999 2.87014 0  8.151289999999999 2.84913 0  8.149430000000001 2.82814 0  7.6399 4.22787 0  7.60964 4.22977 0  7.73817 4.08677 0  7.71461 4.12536 0  7.71671 4.10318 0  7.69331 4.13276 0  7.6504 4.20218 0  7.68013 4.15337 0  7.6652 4.17775 0  7.82434 4.00569 0  7.81248 4.02823 0  7.77107 4.05359 0  7.78856 4.03239 0  7.73981 4.05725 0  7.86843 3.89261 0  7.86032 3.91613 0  7.85377 3.9396 0  7.81516 3.98384 0  7.82305 3.96326 0  7.83403 3.94522 0  7.8965 3.81729 0  7.88316 3.84225 0  7.87622 3.86812 0  7.85458 3.87668 0  7.90753 3.79329 0  7.87802 3.79373 0  7.9333 3.74821 0  7.91938 3.76881 0  7.94615 3.72557 0  7.92535 3.72614 0  7.95529 3.70353 0  7.9654 3.68124 0  8.01069 3.6331 0  8.01989 3.6096 0  7.97586 3.65705 0  7.98482 3.63413 0  8.05498 3.5156 0  8.029820000000001 3.5861 0  8.03876 3.5626 0  8.04772 3.5391 0  8.030720000000001 3.51946 0  8.080640000000001 3.4451 0  8.072329999999999 3.4686 0  8.06363 3.4921 0  8.0641 3.42609 0  8.07094 3.40327 0  8.16114 3.1161 0  8.156940000000001 3.1396 0  8.138909999999999 3.2336 0  8.15274 3.1631 0  8.144220000000001 3.2101 0  8.14855 3.1866 0  8.10263 3.3746 0  8.10993 3.3511 0  8.115780000000001 3.3276 0  8.122439999999999 3.3041 0  8.12876 3.2806 0  8.10966 3.26397 0  8.11359 3.24102 0  8.078049999999999 3.37987 0  8.14321 3.07889 0  8.141349999999999 3.10148 0  8.15352 2.96247 0  8.15235 2.9842 0  8.145149999999999 3.05572 0  8.15104 3.00933 0  8.14743 3.03243 0  7.19201 4.57985 0  7.23443 4.55731 0  7.2971 4.50674 0  7.25047 4.51791 0  7.02161 4.61732 0  7.06736 4.59854 0  7.09621 4.56242 0  7.14317 4.54799 0  7.56834 4.26623 0  7.58264 4.23842 0  7.51214 4.30231 0  7.53449 4.27134 0  7.31111 4.44476 0  7.35601 4.42209 0  7.37649 4.38318 0  7.40713 4.35132 0  7.43696 4.31869 0  7.46789 4.29547 0  6.95252 4.58363 0  6.9763 4.65998 0  6.93501 4.72433 0  6.90184 4.77571 0  6.85805 4.78593 0  6.8346 4.81522 0  6.81401 4.88663 0  6.78449 4.91855 0  6.81425 4.84579 0  6.73904 4.92209 0  6.67455 4.97849 0  6.70206 4.94517 0  6.59506 5.01185 0  6.62898 4.98162 0  6.56515 5.09576 0  6.52968 5.10747 0  6.56876 5.04596 0  6.50118 5.12005 0  6.47599 5.13011 0  6.41366 5.22638 0  6.41804 5.20392 0  6.45471 5.17425 0  6.43421 5.18919 0  6.45079 5.1429 0  6.3873 5.26213 0  6.3906 5.23532 0  6.3638 5.27155 0  6.3403 5.28103 0  6.3168 5.29122 0  6.2933 5.29956 0  6.2698 5.30896 0  8.119630000000001 2.5051 0  8.164619999999999 2.7636 0  8.1614 2.7401 0  8.15827 2.7166 0  8.156560000000001 2.6931 0  8.15221 2.6696 0  8.147919999999999 2.6461 0  8.145910000000001 2.6226 0  8.12731 2.5286 0  8.131930000000001 2.5521 0  8.14226 2.5991 0  8.137460000000001 2.5756 0  8.143140000000001 2.80375 0  8.14217 2.77806 0  8.136570000000001 2.94954 0  8.133369999999999 2.92906 0  8.13245 2.90452 0  
[...]
<CellData  Scalars="f_89401"> 
<DataArray  type="Float64"  Name="f_89401"  format="ascii">8.5921138970378709e-08   6.7947680840858657e-08   7.6075817819651598e-08   5.1814842717929145e-08   5.9871620775302987e-08   4.7050200303814471e-08   5.5636196986168709e-08   3.9753844452427511e-08   4.8162857886316155e-08   3.2007884039970824e-08   3.9574597632176114e-08   1.9058871153424270e-08   2.8221626188304916e-08   7.6911819405886951e-08   8.8096887691567777e-08   8.9001549055989616e-08   8.3755990954086440e-08   7.7765231732941222e-08   8.7952343509660061e-08   8.3231660420488832e-08   7.7997240137050266e-08   8.1885290050192421e-08   8.4190698466260779e-08   7.5730212093972831e-08   8.1503105924878513e-08   7.7609624449407866e-08   7.5500129152136037e-08   7.2938587215691818e-08   8.1076210813751843e-08   6.8874282439321502e-08   6.7429657600810967e-08   2.3814506204557653e-08   1.4900622005518344e-08   1.7658524377699740e-08   2.3065906741752221e-09   7.2851917976753738e-09   4.1192531403824306e-09   1.0146052327289635e-08   5.1364237065739022e-10   1.0253608995880584e-09   8.7497867776853298e-10   1.5489870011005080e-10   3.3600306178638217e-09   1.3968536060373914e-09   8.0894330575536847e-09   4.9699283096319660e-09   4.4195345983390985e-08   8.9654381728786561e-08   8.0236066671063764e-08   9.1420720066023226e-08   5.8486930154976288e-08   7.2315372890409474e-08   4.3491517108466557e-08   5.1526144343400710e-08   5.6181663158572815e-08   4.1823763997653774e-08   5.4771492245170046e-08   2.8984055982949615e-08   3.7108160104804599e-08   1.6667014006581500e-08   2.2172904750085161e-08   1.8526841165107662e-08   2.1490328158719834e-08   1.2519097912870592e-08   1.7482030632911641e-08   8.4140591913101128e-09   1.2286921382756445e-08   9.1586746618345781e-08   9.9135874339986969e-08   7.3252759976533168e-08   8.4617465910373438e-08   9.2687397976878121e-08   8.3987520116716710e-08   8.5941691511847194e-08   8.3671100823861912e-08   7.6836815525151791e-08   9.0720279773551291e-08   7.7118331188724075e-08   7.5135182657518764e-08   6.1583944074953019e-08   6.5246302320969303e-08   5.1796934061983895e-08   5.5402460810605008e-08   3.3126981897956436e-08   2.8130753859211567e-08   4.1411455204020897e-08   7.6122959709386543e-08   7.8182171911283483e-08   7.1359524691776565e-08   7.3015109041470674e-08   6.2535534780061561e-08   6.6980110085245181e-08   1.2716117967745889e-08   1.0296361919340136e-08   1.7783313542549853e-08   1.4452378185612590e-08   2.4770006085841490e-08   2.2227232517703466e-08   3.8450109211930914e-08   2.9640627434927626e-08   2.3155623592691973e-08   1.7850685561150683e-08   1.7362897204962483e-08   1.0686899308680525e-08   1.4214244897369747e-08   6.7428335497663135e-10   4.4158733596140041e-09   2.6556097024734226e-09   7.8699947206374601e-09   7.1115170121641820e-11   2.1326114472565415e-10   1.4158754599041777e-09   6.4152984676881240e-10   5.1300612206248427e-09   3.0387243657383161e-09   1.0667465149512786e-08   7.8450842643058832e-09   1.0834911102411796e-07   4.9124701242560059e-08   5.1523236972893930e-08   9.5399608051125150e-08   1.2097545288645493e-07   7.6647805488112894e-08   9.4076005785646530e-08   6.6645300916029090e-08   6.3868589292978802e-08   6.3845818214698873e-08   5.9051474828823290e-08   4.6821086976406504e-08   5.4447445976846349e-08   3.1984900650169288e-08   4.3835212283307583e-08   2.3015947670664490e-08   3.0801575713432181e-08   3.2921597592369536e-08   1.9869322973841662e-08   2.9523242135563296e-08   7.3372320151945817e-09   7.5221172250616655e-09   7.4152315392659567e-09   5.8704726491057962e-09   1.0310058853407657e-08   7.4713602819309710e-09   1.9190600611938755e-08   1.1058760780399487e-08   2.2295202309457095e-08   1.6818870519740775e-08   1.6392456373028835e-08   1.8782434271737882e-08   3.2360542007627949e-08   2.4401437308566795e-08   5.0825887357463668e-08   3.3578901947773286e-08   6.7489107190803867e-08   5.0776446399003387e-08   7.8747638385945423e-08   6.6820268217445737e-08   9.7315521970129591e-08   7.9359459144965308e-08   1.0607765148848314e-07   9.6300687131059687e-08   1.1942340843024784e-07   1.0557936499172656e-07   1.2164971046898638e-07   1.1486251061009500e-07   1.0389357147668601e-07   1.0393737926851438e-07   1.2678131951020301e-07   1.1613297136404219e-07   1.4382028863954673e-07   9.2870449540637650e-08   1.3972353913049248e-07   7.3328165457917337e-08   9.2270792094653807e-08   8.7812719751823367e-08   8.2301400716983014e-08   7.1486594975115003e-08   7.5853103508168643e-08   5.5387587236214689e-08   5.7857299341486103e-08   4.7843322568965077e-08   3.5011145283681033e-08   5.5914245513201297e-08   9.0929865241031690e-08   8.1158545171921427e-08   5.3765924024077919e-08   7.4406490500473019e-08   5.9512340263249892e-08   5.3271113156745975e-08   4.6054234582406737e-08   4.2683857886489566e-08   4.8407784899477260e-08   4.8571705383492441e-08   7.2809798003903310e-08   6.2858558320324255e-08   8.0075845462209761e-08   7.4462839889991753e-08   1.6019473066038468e-08   1.4198475275283081e-08   1.8123775900863885e-08   1.5619754741512611e-08   3.1664787470370148e-08   2.4518627081183813e-08   4.5666802374783840e-08   4.1324098487307522e-08   2.2535066854059914e-08   3.3402245466396318e-08   1.7884512436506072e-08   2.4635862732074888e-08   1.0948555740682508e-08   1.4844206552015678e-08   1.1806371175579903e-09   3.1319676292547370e-09   8.2462868042455114e-09   5.3001371038791604e-09   2.1920156928072410e-09   2.2467507050112369e-09   5.1964673004318941e-09   4.2819858577062143e-09   1.0149356446725636e-08   7.6006606923878529e-09   1.8020844069891964e-08   1.5723209751382266e-08   1.9999509624690432e-07   1.0455946433788178e-07   1.3962759744269243e-07   9.2021169798539972e-08   6.2092543184272609e-08   1.4021853993526124e-07   1.3020425752055153e-07   1.2519994455682923e-07   6.5391727050116686e-08   8.7427276350260222e-08   5.6347044179875621e-08   6.8154460557259022e-08   6.7389850337494013e-08   6.8152051282056823e-08   6.4368673090072574e-08   6.2084996494271467e-08   4.5553737399789351e-08   5.4396876312232048e-08   3.2694918829688376e-08   3.5836323842547350e-08   1.2960511219612028e-08   1.3958217015964561e-08   1.1494643153524543e-08   9.6415731077366856e-09   2.0393628050768734e-08   1.2786130298714139e-08   2.7865656440273613e-08   2.1402597719518877e-08   2.5949960137504670e-08   2.3419703399585819e-08   2.9753087428471418e-08   2.9960525309319072e-08   4.5416080438321544e-08   2.9439507072925301e-08   6.8506641571667831e-08   5.1500888183184516e-08   7.8411359555670255e-08   6.2948432166185860e-08   1.1214813341504819e-07   9.1643298926322634e-08   8.3571402009669930e-08   9.0855624906838928e-08   1.2570972664958477e-07   1.1327932692004055e-07   1.3309364232113786e-07   1.2512253574049127e-07   1.1408622001895976e-07   1.1265067774393474e-07   1.2723959706561539e-07   1.2899872052987519e-07   9.7427814203903043e-08   1.0892200069495892e-07   8.1018084858245021e-08   8.3776426986491197e-08   6.8220828095217724e-08   6.6273293107987745e-08   7.4805315433536521e-08   7.1254817288389198e-08   1.0023492383488861e-07   8.6650534322143666e-08   8.4439901929008523e-08   9.0877864184098069e-08   1.0786906753430841e-07   9.5765868152564275e-08   1.0872010530694757e-07   1.1180365109193766e-07   1.1016163797766447e-07   1.1671870099742861e-07   1.1408123176453969e-07   5.9253586117905401e-08   6.9129301362709133e-08   2.2777247044482583e-07   2.4227916469557642e-07   1.3558943475338808e-07   1.3764895114862972e-07   2.4997285166275550e-07   1.1426573791062061e-07   9.8098423832983683e-08   1.7754189435119378e-07   1.2206171192217320e-07   6.6052825198137434e-08   5.8642750610950549e-08   6.4331261441303176e-08   5.6469378075210804e-08   8.8352614781559696e-08   1.0193054141591835e-07   1.0264619989917521e-07   6.3049023561779887e-08   8.3496501996741110e-08   2.9689276640167433e-07   5.6570735691157215e-08   5.2378878361420994e-08   5.8916559045941630e-08   5.6833345533698491e-08   8.6022631144937383e-08   7.7063927553941410e-08   7.8675847422162991e-08   3.1501333463405832e-08   2.5821949585483220e-08   2.8986192548303651e-08   4.3475422733786104e-08   4.1053691648002415e-08   5.5327117432978153e-08   6.0291773007553249e-08   4.4467402943797111e-08   5.5277301982722139e-08   1.8058412713690620e-08   3.3503040087035658e-08   1.3021917953599377e-08   1.7382450529610855e-08   6.3128779491225152e-09   6.1108069776531299e-09   1.2006951899438178e-08   1.0496221302496887e-08   1.1360636347244368e-08   1.3157224265071237e-08   1.4138711799293314e-08   1.5944413891234911e-08   1.5974087541880655e-08   4.6499037072590995e-08   2.9441481941518778e-08   2.4326976649639723e-07   3.4139620158811013e-07   2.9071275218368351e-07   2.3622360416166672e-07   3.6817753190850588e-07   1.7211947081509421e-07   1.1735420000379589e-07   9.7966261296670258e-08   2.2991822998219113e-07   4.3630195973834580e-08   8.8285547207834487e-08   1.3385049504689393e-07   7.2276515534612091e-08   8.7865096546496251e-08   4.8484005654493383e-08   5.6017522418187676e-08   4.6260610739185372e-08   2.3184350329802264e-08   2.4000924293824364e-08   2.9410812058715997e-08   3.9446326283208417e-08   3.9634286328998550e-08   4.6282727886869185e-08   4.9284046620908947e-08   4.7959023222876057e-08   8.0389818058261026e-08   6.6760522072396036e-08   6.6606156102582100e-08   6.5088281262698197e-08   8.7485780281028290e-08   6.9929299255394571e-08   8.3257048790860612e-08   7.8364060660139884e-08   1.3315496989419275e-07   1.2025672827256642e-07   9.3940672477162586e-08   1.1645125198563354e-07   1.4315933074204954e-07   1.4156497390126962e-07   1.5985219218282973e-07   1.5197302289305154e-07   1.3896411388631366e-07   1.1829501700765013e-07   1.1933554265775696e-07   1.2620022467122549e-07   1.3593752106716187e-07   1.3260005148405967e-07   1.3865887858227155e-07   1.0810387201942273e-07   1.5551247286352641e-07   1.5939827729174883e-07   1.9548548427229324e-07   1.3737010483727687e-07   1.3257585400860663e-07   1.4497895150237180e-07   1.4726117378532551e-07   1.4529253826054211e-07   1.4907800420941094e-07   8.6319802578349839e-08   7.4064298268606340e-08   7.7346559534691400e-08   9.2761376645726124e-08   5.7285559187384483e-08   7.7573220898918923e-08   8.3743724438910454e-08   7.2344305969357763e-08   8.4369544886566947e-08   1.1038650982250450e-07   1.0562706738623699e-07   1.1400383480824154e-07   9.2618210817954753e-08   1.2219964943742295e-07   1.4080946179187321e-07   1.2094275111456324e-07   1.3100856623261800e-07   1.2460155230595583e-07   6.1953495578800530e-08   6.6379050412941252e-08   5.5473011574731049e-08   6.3477769456773571e-08   6.7494769061336229e-08   6.1386810004743773e-08   3.3619416151367923e-08   2.8942788739670580e-08   3.3335219270730346e-08   3.5007973923820735e-07   3.8353842056852517e-07   2.3363269003715420e-07   3.3572032765923697e-07   1.5677661596407880e-07   1.9064827653621886e-07   9.0455181761793633e-08   1.1058962994938657e-07   7.4568094940257916e-08   6.3115909147784943e-08   6.8908220245561232e-08   6.1074830963593814e-08   1.0238048212068599e-07   1.2235886846631225e-07   1.3006436164147288e-07   5.5501381088338082e-07   5.0011392312935865e-07   5.0767946817640825e-07   4.7283363985745510e-07   9.8136780662631079e-08   7.9143094351353759e-08   8.5933482836638444e-08   1.4936174053033471e-07   1.1964901115186409e-07   5.7702551204393910e-08   5.5699642690485199e-08   5.9853877393058286e-08   5.7317890763315005e-08   1.2081405980851366e-07   8.0486378804202797e-08   6.2060150386019095e-08   3.8973964166003718e-08   5.4868975912216436e-08   7.9932801205113711e-08   3.0314194203788529e-08   3.1149121356408302e-08   6.5566891986471573e-08   3.2401073850116531e-08   4.6021605720053037e-08   4.0278951769472093e-08   5.1971814508601870e-08   5.7353870282312313e-08   7.4248811441519465e-08   8.6425607619660558e-08   6.8718161568396489e-07   5.8436780755611310e-07   5.5701288155175319e-07   4.8295697576011177e-07   1.9300335884500687e-07   2.7674217199684884e-07   7.8891638688886933e-08   6.4259520179287600e-08   1.6550987288300389e-07   1.7472239766413268e-07   1.2840015341610254e-07   1.3024222257138171e-07   1.3131996771118739e-07   8.8219769693107951e-08   9.8200576925616962e-08   1.0700300272205169e-07   8.6325253259561526e-08   8.3832192485242042e-08   8.1084273208832794e-08   1.3646495083383559e-07   1.4065658808877893e-07   9.5990963802789267e-08   7.9376550061562995e-08   1.3633567271549915e-07   1.2825491276519790e-07   1.3938670158937845e-07   1.2072360798589367e-07   1.4746539630921807e-07   1.8130013701039014e-07   1.2739470054125086e-07   2.8495680616087351e-07   2.0080421456103078e-07   1.5225987841818514e-07   2.4437555252410982e-07   1.6545157136810323e-07   1.5863682211274515e-07   1.1316265452325121e-07   1.3811083558110862e-07   1.5222865135471666e-07   1.3012926614452023e-07   2.0561760513374455e-07   2.4354930365226560e-07   2.7354583606880755e-07   2.8743150930162086e-07   1.6790779422205113e-07   1.6958192813680908e-07   1.6921508782077238e-07   1.7617613456792097e-07   1.3020042432792779e-07   1.4521597898842299e-07   1.2327887954160686e-07   1.2761735427108952e-07   8.5840181069226561e-08   1.0111951471054187e-07   1.6090086765979355e-07   1.7028101082296940e-07   4.2302702575641926e-08   4.5597154073214323e-08   3.5833109697477586e-08   4.6975282452103504e-08   3.8705658504094287e-08   5.1448297804806890e-08   4.1767577874403257e-08   5.7098042414247517e-08   4.4578700878305862e-08   6.1208645956398743e-08   4.8558894771522499e-08   1.1253868691678099e-07   1.1457554481245004e-07   1.2724943487844844e-07   1.4191101147642000e-07   7.1457101527442875e-08   9.2970711941909772e-08   8.5003144299334737e-08   9.6491797199216888e-08   1.0017938894116923e-07   1.0890320114218173e-07   9.9661326745755110e-08   1.3382161915535936e-07   1.3483147832801331e-07   1.4653656220014455e-07   1.2333132796797602e-07   1.3782119678191689e-07   1.4610699098328668e-07   1.4558274431333110e-07   4.3794722822616349e-08   4.2699961676577992e-08   4.9776987181940270e-08   4.9753472406439529e-08   6.2527879418515486e-08   8.0586742560454169e-08   8.6801492380639026e-08   5.7310959275826518e-08   7.5178660567897685e-08   1.0801146984376996e-07   1.2097534354591743e-07   3.2935030715910354e-08   3.0543935023102362e-08   3.2963144423654753e-08   2.7591936207905206e-08   3.2624672602504982e-08   3.0439421326324886e-08   4.0327207593895560e-08   3.7095836865539675e-08   3.7759658100923008e-08   2.7652514188341793e-08   3.1397210081061742e-08   6.0275760372112155e-08   5.7710101001995889e-08   6.0588005038071647e-08   3.8005777535522811e-08   4.6852887454217861e-08   3.7999472116492534e-08   3.6496530529780524e-08   8.6583269193236867e-08   6.7054221188580021e-08   8.3850667657236604e-08   9.7175611741879076e-08   9.7159819617073120e-08   8.5557115717184117e-08   8.3964240012671898e-08   9.3419665732676711e-08   9.3396484916371111e-08   8.0720482161371277e-08   1.0467881372005404e-07   9.4416289665635818e-08   1.1865057881846693e-07   1.0799973997181899e-07   1.4185476589522924e-07   1.2959273182103488e-07   1.5177695242347582e-07   1.3862264660964600e-07   1.6122652637652041e-07   1.3935199180108489e-07   1.3784211666402480e-07   1.3484783526539922e-07   8.5758875667526261e-08   8.1825036144153524e-08   8.1297117879898862e-08   1.3178562584862971e-07   1.3872362500310494e-07   4.4449212092523041e-08   4.4878344135842714e-08   3.6268347743857153e-08   4.1616936318853636e-08   3.3061353902146520e-08   4.0810841748592657e-08   3.0516480949441865e-08   4.5495596598693312e-08   3.5261877514569133e-08   3.9648628878299839e-08   3.3892794474762548e-08   4.4595719417190551e-08   3.2455523510209005e-08   3.6027562594991540e-08   2.7583861707105646e-07   3.9037437327933257e-07   5.2861116517378772e-07   1.8636141650486190e-07   1.6475188262432936e-07   3.1914808701236027e-07   1.2181106523449551e-07   1.0449970622788590e-07   1.8809975876363463e-07   2.6294608511100769e-07   2.5920063856097375e-07   7.3361678446516091e-07   5.4302719611287392e-07   6.2912555815403580e-07   5.5403648252242589e-07   5.8985855045663710e-07   4.2362465873977770e-07   4.8824827075212144e-07   1.6322705908889077e-07   1.5823164035464311e-07   1.4617446442402590e-07   1.3255609299886128e-07   1.1194323682684607e-07   1.2247302102795387e-07   1.2990023238384641e-07   1.2476878310643438e-07   1.3977290810040025e-07   1.5395102447396195e-07   2.1682671909808139e-07   1.0660480666943230e-07   1.7122716670693586e-07   1.1139880118641601e-07   1.2162484740987848e-07   1.2431229506622137e-07   1.3214582812275430e-07   1.5245270208763644e-07   1.6642070652844900e-07   1.5484388809164139e-07   1.4157454312897959e-07   7.5610318288236137e-07   8.6358794829294241e-07   1.1936082289568835e-06   3.2895563773515838e-07   4.7536864750006349e-07   7.2227087935162739e-07   2.2398182858124818e-07   3.0534115260782163e-07   2.0163506722632201e-07   2.8243606332300050e-07   2.1053377250927299e-07   1.9035591405006988e-07   1.4748450857779671e-07   1.3665598640216728e-07   1.2075568237243759e-07   1.4379743529770137e-07   1.2396643106598356e-07   1.7648993236103218e-07   1.3768568505170048e-07   2.7610728665784412e-07   2.0653295396874068e-07   1.7059626418694809e-07   1.8788438589719631e-07   3.1867619525785679e-07   2.6495140841209288e-07   3.1385921567797930e-07   2.9422655966044034e-07   3.7673705550921777e-07   3.4362357360931479e-07   4.2209188396220237e-07   2.2884929418736977e-07   2.2444511948227415e-07   2.6117584256349604e-07   2.1152410798795813e-07   2.8796873543770964e-07   4.3560259991257547e-07   3.1113300987262993e-07   3.4938145295280401e-07   1.9479868252931264e-07   2.2681123929537971e-07   1.9232239909561206e-07   1.9189583495671773e-07   9.0049303958858570e-08   9.1469944057233162e-08   8.3599543006524156e-08   1.4547198357099056e-07   1.5936654406347171e-07   1.1344764000072636e-07   1.3208435560321462e-07   9.1185282461714943e-08   1.8085944023275388e-07   1.9800633878707931e-07   8.9995337127136586e-08   9.2083418081906973e-08   8.0363420721696335e-08   7.4365991395791748e-08   7.9313879877497694e-08   8.1185170081516866e-08   2.8306696137243464e-08   3.6113956251908797e-08   2.3543985071606631e-08   4.1134095107086680e-08   3.3063506049333236e-08   3.5969655140808636e-08   3.1217829878919189e-08   4.5316741368519592e-08   3.4240880442560828e-08   4.6547027318942830e-08   4.2039628207494007e-08   4.4870820444229950e-08   3.6669929960313616e-08   1.5594292951360951e-07   1.5163110928736632e-07   1.8304642057693936e-07   1.6071874918607621e-07   1.6939905529460378e-07   1.5765434397983251e-07   9.8264357151054069e-08   1.5799577133192317e-07   1.0880443651528928e-07   1.3889828932155506e-07   1.3712625116910718e-07   1.8554262295887278e-07   1.9320794734977184e-07   1.3240941890756461e-07   1.6741244192469216e-07   1.6574523738837717e-07   7.2236902977589764e-08   5.9903440128977189e-08   8.0837646390337781e-08   1.1726457780183786e-07   1.1960866481055195e-07   1.6027050778439105e-07   2.3890535044477529e-07   2.6757725882064789e-07   4.1494844837049584e-08   3.7394950617824967e-08   3.7699482654807496e-08   4.7001648418044601e-08   3.4182799325381196e-08   5.1350628061664516e-08   8.3892013296739466e-08   4.0796972586576506e-08   4.4323932272870187e-08   7.3012787159044864e-08   7.8876326368230265e-08   8.3469807481970317e-08   6.7400310409154918e-08   8.0803598183715303e-08   5.5931492795757488e-08   5.6239599474189969e-08   5.0928437299433183e-08   1.0093726796493814e-07   8.8837279459288299e-08   9.4040851378103295e-08   9.9620285396681705e-08   8.4754470939463039e-08   1.1501669327295351e-07   9.6649100740343721e-08   1.1444540264214411e-07   1.0081953313618878e-07   7.3478209018491188e-08   9.1342913788302278e-08   1.0971208678858872e-07   1.2771070583822538e-07   1.0794928026446980e-07   1.2118780179501602e-07   1.1576784371481226e-07   1.6850516120715166e-07   1.59202278