<?xml version="1.0"?>
<VTKFile type="UnstructuredGrid"  version="0.1"  >
<UnstructuredGrid>
<Piece  NumberOfPoints="21266" NumberOfCells="39409">
<Points>
<DataArray  type="Float64"  NumberOfComponents="3"  format="ascii">7.1769 4.82493 0  7.15599 4.841 0  7.13689 4.8551 0  7.1158 4.86986 0  7.09545 4.8833 0  7.0735 4.89909 0  7.2004 4.80826 0  7.2192 4.79324 0  7.2427 4.77631 0  7.2615 4.76004 0  7.2803 4.7447 0  7.2991 4.72921 0  7.31718 4.7141 0  7.33791 4.7 0  7.35423 4.6812 0  7.4495 4.58896 0  7.4683 4.56902 0  7.48701 4.5496 0  7.5039 4.5308 0  7.52 4.51291 0  7.53648 4.4932 0  7.5529 4.47481 0  7.17401 4.79802 0  7.15325 4.81426 0  7.13467 4.82894 0  7.11397 4.84383 0  7.09237 4.85558 0  7.07198 4.87138 0  7.05309 4.9115 0  7.05196 4.88634 0  7.0312 4.92685 0  7.0077 4.94116 0  7.19575 4.78239 0  7.21754 4.76837 0  7.23886 4.75218 0  7.25562 4.73534 0  7.27434 4.71992 0  7.29305 4.70439 0  7.3743 4.66399 0  7.3931 4.64533 0  7.4119 4.62616 0  7.4307 4.6086 0  7.31147 4.68903 0  7.32976 4.67219 0  7.34743 4.65373 0  7.56907 4.4556 0  7.58329 4.4368 0  7.59837 4.418 0  7.61305 4.3992 0  7.42335 4.581 0  7.44078 4.56169 0  7.47657 4.5264 0  7.45879 4.54253 0  7.49593 4.50844 0  7.51006 4.48936 0  7.52531 4.46995 0  7.54154 4.45075 0  7.1155 4.82061 0  7.16987 4.77069 0  7.14788 4.78758 0  7.12908 4.8052 0  7.09123 4.82654 0  7.06881 4.84355 0  7.04978 4.8604 0  7.02821 4.8991 0  7.03421 4.87544 0  7.00476 4.91014 0  6.9842 4.95543 0  6.9607 4.96994 0  6.93934 4.982 0  6.9184 4.99413 0  6.8949 5.0077 0  6.98145 4.92568 0  6.87443 5.0196 0  6.8526 5.03151 0  6.8291 5.04427 0  6.80549 5.0572 0  6.7821 5.06881 0  6.7586 5.08225 0  6.7351 5.09287 0  6.7116 5.10521 0  6.6881 5.11648 0  7.19272 4.75504 0  7.21665 4.74609 0  7.23042 4.72455 0  7.24824 4.71067 0  7.26973 4.69518 0  7.28646 4.67889 0  7.36559 4.63485 0  7.38342 4.61517 0  7.40426 4.59902 0  7.30423 4.66219 0  7.32137 4.64451 0  7.33935 4.62565 0  7.6281 4.379 0  7.6422 4.35929 0  7.6563 4.34009 0  7.67443 4.3193 0  7.55814 4.43199 0  7.57462 4.4151 0  7.59006 4.39525 0  7.60188 4.37551 0  7.4009 4.57326 0  7.41396 4.55444 0  7.4307 4.5342 0  7.47493 4.50372 0  7.44923 4.51424 0  7.485 4.48594 0  7.49758 4.46571 0  7.51313 4.44582 0  7.53056 4.42631 0  7.16772 4.73996 0  7.10435 4.80157 0  7.14271 4.7603 0  7.12093 4.78085 0  7.08185 4.80093 0  7.06371 4.81511 0  7.04358 4.832 0  7.02383 4.85045 0  7.00539 4.87652 0  6.97813 4.89407 0  6.95911 4.94168 0  6.93971 4.95578 0  6.91804 4.97033 0  6.89554 4.98171 0  6.87489 4.99508 0  6.95463 4.91127 0  6.85249 5.00745 0  6.82973 5.01717 0  6.80615 5.02883 0  6.78262 5.04136 0  6.75883 5.05356 0  6.73538 5.06548 0  6.71171 5.07745 0  6.66736 5.1277 0  6.6889 5.09005 0  6.66857 5.10307 0  7.6892 4.29795 0  7.78096 4.1407 0  7.70249 4.277 0  7.7691 4.16195 0  7.75678 4.183 0  7.7174 4.25497 0  7.72912 4.23 0  7.74292 4.2065 0  7.7926 4.11952 0  7.19623 4.72095 0  7.22149 4.69784 0  7.24709 4.68864 0  7.26072 4.66745 0  7.27958 4.65508 0  7.35596 4.60523 0  7.37586 4.58123 0  7.29133 4.63183 0  7.31613 4.62148 0  7.32791 4.59966 0  7.61643 4.3556 0  7.63282 4.3371 0  7.64817 4.3144 0  7.6624 4.29423 0  7.5494 4.40779 0  7.56853 4.39535 0  7.57509 4.37324 0  7.58865 4.35111 0  7.38542 4.55004 0  7.40218 4.5263 0  7.41892 4.50587 0  7.45946 4.48569 0  7.43505 4.48835 0  7.46877 4.46262 0  7.48316 4.44059 0  7.50057 4.42157 0  7.52053 4.39994 0  7.156 4.70458 0  7.1408 4.73494 0  7.09057 4.77616 0  7.10931 4.74763 0  7.05941 4.78525 0  7.0402 4.80507 0  7.01422 4.81688 0  6.99401 4.83891 0  6.97269 4.86114 0  6.94968 4.87903 0  6.93339 4.92954 0  6.91887 4.94835 0  6.89523 4.95505 0  6.87181 4.96799 0  6.85528 4.98657 0  6.92596 4.8974 0  6.83142 4.99095 0  6.80584 4.99996 0  6.78413 5.01302 0  6.73529 5.0367 0  6.75899 5.02675 0  6.71146 5.04906 0  6.68777 5.06204 0  6.6458 5.13871 0  6.62098 5.1512 0  6.5988 5.16279 0  6.64597 5.11434 0  6.66562 5.07608 0  6.64892 5.09369 0  6.57429 5.1747 0  6.5518 5.18561 0  6.5283 5.19672 0  7.67678 4.27344 0  7.65342 4.27244 0  7.76791 4.12016 0  7.75605 4.13966 0  7.68816 4.2524 0  7.74189 4.16147 0  7.72738 4.18138 0  7.70047 4.22914 0  7.71326 4.20492 0  7.8038 4.0984 0  7.81472 4.0749 0  7.77971 4.09887 0  7.86109 3.9809 0  7.18253 4.67983 0  7.22404 4.66203 0  7.25454 4.63507 0  7.27021 4.60915 0  7.34119 4.57632 0  7.35416 4.54866 0  7.29325 4.59534 0  7.31287 4.5746 0  7.13581 4.66432 0  7.60481 4.33106 0  7.62389 4.31457 0  7.63238 4.28784 0  7.54401 4.37792 0  7.5587 4.35201 0  7.57738 4.3254 0  7.36708 4.51353 0  7.39328 4.49781 0  7.40977 4.47505 0  7.43809 4.4633 0  7.4493 4.43448 0  7.46959 4.41333 0  7.49389 4.39733 0  7.50474 4.36871 0  7.10704 4.69993 0  7.06136 4.74104 0  7.02006 4.77609 0  6.94628 4.8503 0  6.98557 4.80104 0  6.96211 4.8272 0  6.92021 4.85963 0  6.90174 4.92376 0  6.86584 4.93962 0  6.83822 4.96125 0  6.88978 4.87871 0  6.80696 4.9733 0  6.78034 4.98216 0  6.76196 5.00183 0  6.71202 5.019 0  6.73503 5.00634 0  6.68661 5.03366 0  6.66135 5.04676 0  6.62341 5.12492 0  6.60062 5.13791 0  6.57598 5.1491 0  6.62498 5.09806 0  6.63497 5.0685 0  6.55217 5.15776 0  6.52795 5.1681 0  6.5048 5.20905 0  6.4813 5.2194 0  6.45602 5.2311 0  6.50367 5.17943 0  8.175240000000001 2.9281 0  8.17483 2.9046 0  8.17423 2.8811 0  8.174060000000001 2.8576 0  8.17165 2.8341 0  7.66054 4.25141 0  7.6336 4.25542 0  7.75902 4.10052 0  7.7333 4.1392 0  7.74084 4.11642 0  7.6704 4.2277 0  7.71251 4.15331 0  7.69687 4.17903 0  7.68277 4.20345 0  7.85116 4.0044 0  7.83862 4.0279 0  7.82746 4.0514 0  7.78904 4.07645 0  7.80125 4.05338 0  7.76369 4.07955 0  7.88387 3.9104 0  7.86962 3.9574 0  7.8772 3.93447 0  7.83694 3.9834 0  7.84642 3.96163 0  7.9125 3.8399 0  7.9007 3.86401 0  7.89251 3.8869 0  7.9242 3.81828 0  7.93714 3.7929 0  7.94966 3.7694 0  7.96124 3.7459 0  7.9712 3.72394 0  7.9806 3.7023 0  7.99072 3.6801 0  8.001659999999999 3.6566 0  8.087149999999999 3.4216 0  8.133559999999999 3.2571 0  8.095409999999999 3.3981 0  8.16422 3.0926 0  8.17474 2.9516 0  8.174110000000001 2.9751 0  8.166729999999999 3.0691 0  8.172639999999999 2.9986 0  8.170400000000001 3.0456 0  8.171239999999999 3.0221 0  7.17467 4.63462 0  7.21672 4.6218 0  7.23833 4.59746 0  7.26321 4.58321 0  7.31987 4.54885 0  7.33555 4.522 0  7.28125 4.55496 0  7.078 4.64761 0  7.11655 4.61904 0  7.14452 4.58878 0  7.59744 4.29841 0  7.60567 4.26319 0  7.5245 4.34575 0  7.54874 4.32635 0  7.55631 4.29734 0  7.33584 4.49112 0  7.36847 4.46828 0  7.40618 4.43358 0  7.43005 4.39967 0  7.46198 4.37186 0  7.48449 4.33447 0  7.04196 4.68162 0  7.00114 4.7206 0  6.97852 4.76275 0  6.92582 4.82296 0  6.94354 4.78428 0  6.88373 4.8294 0  6.85821 4.90133 0  6.82739 4.92231 0  6.80779 4.94706 0  6.85047 4.85705 0  6.77763 4.95422 0  6.68923 5.00653 0  6.74478 4.97187 0  6.70805 4.98747 0  6.63119 5.02825 0  6.66197 5.01202 0  6.59914 5.10863 0  6.58045 5.12778 0  6.55443 5.13039 0  6.59803 5.07802 0  6.6056 5.04652 0  6.528 5.13892 0  6.50252 5.14969 0  6.43421 5.2405 0  6.48009 5.19136 0  6.45715 5.20361 0  6.43649 5.2163 0  6.47803 5.16133 0  6.4108 5.25202 0  8.17079 2.8106 0  8.167149999999999 2.7871 0  8.154590000000001 2.93955 0  8.154109999999999 2.91651 0  8.15418 2.89326 0  8.153309999999999 2.87014 0  8.151289999999999 2.84913 0  8.149430000000001 2.82814 0  7.6399 4.22787 0  7.60964 4.22977 0  7.73817 4.08677 0  7.71461 4.12536 0  7.71671 4.10318 0  7.69331 4.13276 0  7.6504 4.20218 0  7.68013 4.15337 0  7.6652 4.17775 0  7.82434 4.00569 0  7.81248 4.02823 0  7.77107 4.05359 0  7.78856 4.03239 0  7.73981 4.05725 0  7.86843 3.89261 0  7.86032 3.91613 0  7.85377 3.9396 0  7.81516 3.98384 0  7.82305 3.96326 0  7.83403 3.94522 0  7.8965 3.81729 0  7.88316 3.84225 0  7.87622 3.86812 0  7.85458 3.87668 0  7.90753 3.79329 0  7.87802 3.79373 0  7.9333 3.74821 0  7.91938 3.76881 0  7.94615 3.72557 0  7.92535 3.72614 0  7.95529 3.70353 0  7.9654 3.68124 0  8.01069 3.6331 0  8.01989 3.6096 0  7.97586 3.65705 0  7.98482 3.63413 0  8.05498 3.5156 0  8.029820000000001 3.5861 0  8.03876 3.5626 0  8.04772 3.5391 0  8.030720000000001 3.51946 0  8.080640000000001 3.4451 0  8.072329999999999 3.4686 0  8.06363 3.4921 0  8.0641 3.42609 0  8.07094 3.40327 0  8.16114 3.1161 0  8.156940000000001 3.1396 0  8.138909999999999 3.2336 0  8.15274 3.1631 0  8.144220000000001 3.2101 0  8.14855 3.1866 0  8.10263 3.3746 0  8.10993 3.3511 0  8.115780000000001 3.3276 0  8.122439999999999 3.3041 0  8.12876 3.2806 0  8.10966 3.26397 0  8.11359 3.24102 0  8.078049999999999 3.37987 0  8.14321 3.07889 0  8.141349999999999 3.10148 0  8.15352 2.96247 0  8.15235 2.9842 0  8.145149999999999 3.05572 0  8.15104 3.00933 0  8.14743 3.03243 0  7.19201 4.57985 0  7.23443 4.55731 0  7.2971 4.50674 0  7.25047 4.51791 0  7.02161 4.61732 0  7.06736 4.59854 0  7.09621 4.56242 0  7.14317 4.54799 0  7.56834 4.26623 0  7.58264 4.23842 0  7.51214 4.30231 0  7.53449 4.27134 0  7.31111 4.44476 0  7.35601 4.42209 0  7.37649 4.38318 0  7.40713 4.35132 0  7.43696 4.31869 0  7.46789 4.29547 0  6.95252 4.58363 0  6.9763 4.65998 0  6.93501 4.72433 0  6.90184 4.77571 0  6.85805 4.78593 0  6.8346 4.81522 0  6.81401 4.88663 0  6.78449 4.91855 0  6.81425 4.84579 0  6.73904 4.92209 0  6.67455 4.97849 0  6.70206 4.94517 0  6.59506 5.01185 0  6.62898 4.98162 0  6.56515 5.09576 0  6.52968 5.10747 0  6.56876 5.04596 0  6.50118 5.12005 0  6.47599 5.13011 0  6.41366 5.22638 0  6.41804 5.20392 0  6.45471 5.17425 0  6.43421 5.18919 0  6.45079 5.1429 0  6.3873 5.26213 0  6.3906 5.23532 0  6.3638 5.27155 0  6.3403 5.28103 0  6.3168 5.29122 0  6.2933 5.29956 0  6.2698 5.30896 0  8.119630000000001 2.5051 0  8.164619999999999 2.7636 0  8.1614 2.7401 0  8.15827 2.7166 0  8.156560000000001 2.6931 0  8.15221 2.6696 0  8.147919999999999 2.6461 0  8.145910000000001 2.6226 0  8.12731 2.5286 0  8.131930000000001 2.5521 0  8.14226 2.5991 0  8.137460000000001 2.5756 0  8.143140000000001 2.80375 0  8.14217 2.77806 0  8.136570000000001 2.94954 0  8.133369999999999 2.92906 0  8.13245 2.90452 0  
[...]
<CellData  Scalars="f_44526"> 
<DataArray  type="Float64"  Name="f_44526"  format="ascii">3.4353617001735819e-07   2.7167337767342218e-07   3.0417188829062433e-07   2.0716988660387462e-07   2.3938308477230578e-07   1.8811954548803445e-07   2.2244870419546958e-07   1.5894672289389629e-07   1.9256825425765633e-07   1.2797625852285442e-07   1.5823004517226851e-07   7.6202569930536945e-08   1.1283776598601909e-07   3.0751445086027231e-07   3.5223540738262574e-07   3.5585249048953346e-07   3.3487931716425330e-07   3.1092662632483145e-07   3.5165748028289188e-07   3.3278290054904186e-07   3.1185425926260088e-07   3.2739974425038321e-07   3.3661739647278519e-07   3.0279006224922778e-07   3.2587166778136408e-07   3.1030446592458100e-07   3.0187012783527467e-07   2.9162838387412946e-07   3.2416482458499731e-07   2.7537818382569459e-07   2.6960217933971214e-07   9.5216897150171803e-08   5.9576754637959744e-08   7.0603601227452881e-08   9.2223792130719153e-09   2.9128185659619467e-08   1.6469898608616130e-08   4.0566687070039425e-08   2.0536824219140379e-09   4.0996727993971278e-09   3.4984036223151067e-09   6.1932729028224508e-10   1.3434319696343072e-08   5.5850020570416602e-09   3.2343761773943614e-08   1.9871130169031190e-08   1.7670505854165117e-07   3.5846269373826303e-07   3.2080569894373905e-07   3.6552499661972332e-07   2.3384671365262142e-07   2.8913660286455225e-07   1.7389095855488860e-07   2.0601559168804585e-07   2.2462962686464307e-07   1.6722282632236991e-07   2.1899137857713866e-07   1.1588616844783550e-07   1.4836855460203250e-07   6.6639272082049408e-08   8.8653326379087555e-08   7.4075368793414165e-08   8.5924198823853440e-08   5.0054771161058991e-08   6.9897931053114229e-08   3.3641705679419910e-08   4.9126466009624335e-08   3.6618881610104967e-07   3.9637228963901811e-07   2.9288453234092424e-07   3.3832372922157498e-07   3.7058952070955113e-07   3.3580503396375850e-07   3.4361834468897605e-07   3.3453990324866648e-07   3.0721456486908169e-07   3.6272444511068575e-07   3.0834014134563301e-07   3.0041097211964410e-07   2.4622942078742567e-07   2.6087252887636992e-07   2.0709828290835756e-07   2.2151416315574304e-07   1.3245071727205079e-07   1.1247443360621513e-07   1.6557430320540124e-07   3.0436037443548874e-07   3.1259366698223781e-07   2.8531486082049456e-07   2.9193433902399603e-07   2.5003414021008525e-07   2.6780476564630851e-07   5.0842511126795062e-08   4.1167665853477363e-08   7.1102542375880946e-08   5.7784553475708630e-08   9.9037246526377595e-08   8.8870543625472182e-08   1.5373403348353731e-07   1.1851132035641095e-07   9.2582504593417191e-08   7.1371914098764814e-08   6.9421603084827677e-08   4.2729140952506525e-08   5.6832431579085024e-08   2.6959689321043456e-09   1.7655867222226621e-08   1.0617852570169690e-08   3.1466387396432138e-08   2.8433786454042954e-10   8.5267627676441776e-10   5.6610566217545193e-09   2.5650114646032215e-09   2.0511385263358903e-08   1.2149649583951888e-08   4.2651437878642542e-08   3.1366788591480259e-08   4.3320932510966021e-07   1.9641396657851557e-07   2.0600396722704920e-07   3.8143367701793417e-07   4.8369288685820896e-07   3.0645885114138739e-07   3.7614155381801392e-07   2.6646610718510099e-07   2.5536405607572011e-07   2.5527301108826824e-07   2.3610391737898205e-07   1.8720348785727152e-07   2.1769575313196429e-07   1.2788436465597739e-07   1.7526514569245724e-07   9.2024042125720188e-08   1.2315310851198212e-07   1.3162953474853625e-07   7.9442977561373549e-08   1.1804198188344577e-07   2.9336256656207271e-08   3.0075478198795175e-08   2.9648120047262854e-08   2.3471752286253094e-08   4.1222429935132399e-08   2.9872538083546953e-08   7.6729260267732373e-08   4.4215944634373758e-08   8.9142305408608918e-08   6.7246435878387415e-08   6.5541515709054714e-08   7.5097299810470003e-08   1.2938628135293807e-07   9.7563607935803128e-08   2.0321577308857848e-07   1.3425761700509223e-07   2.6983987503020197e-07   2.0301809463930563e-07   3.1485455631990624e-07   2.6716567422212159e-07   3.8909402390934062e-07   3.1730078274112746e-07   4.2412740977924744e-07   3.8503643717350369e-07   4.7748738941518884e-07   4.2213512433333244e-07   4.8638875274504190e-07   4.5925167480814738e-07   4.1539486163969063e-07   4.1557001715091958e-07   5.0690632661768379e-07   4.6433132373736654e-07   5.7503277682403568e-07   3.7132141083441634e-07   5.5865285387694773e-07   2.9318602404114295e-07   3.6892381665928849e-07   3.5109922638186671e-07   3.2906346829414404e-07   2.8582292250338619e-07   3.0328141567245665e-07   2.2145469454485455e-07   2.3132927777149404e-07   1.9129066482596101e-07   1.3998411686352652e-07   2.2356041811361031e-07   3.6356242502636614e-07   3.2449401982618830e-07   2.1497084230975702e-07   2.9749746194330185e-07   2.3794658320177582e-07   2.1299245337912534e-07   1.8413740263586632e-07   1.7066171649499573e-07   1.9354753932118600e-07   1.9420293816645994e-07   2.9111344944602816e-07   2.5132567650926437e-07   3.2016509081045983e-07   2.9772276218594656e-07   6.4050226623511177e-08   5.6769380324887824e-08   7.2463803830420348e-08   6.2452043639221678e-08   1.2660446477245326e-07   9.8032164639457147e-08   1.8258834290105749e-07   1.6522502720365130e-07   9.0101349340792380e-08   1.3355129616544347e-07   7.1507163181148996e-08   9.8500904776971172e-08   4.3775314799682589e-08   5.9351190253473452e-08   4.7205095091447213e-09   1.2522461606838244e-08   3.2970905874185373e-08   2.1191395075211197e-08   8.7642771586700950e-09   8.9831226800836708e-09   2.0776894899242242e-08   1.7120548438399795e-08   4.0579897841566786e-08   3.0389516423478364e-08   7.2052254269872357e-08   6.2865685011829924e-08   7.9963499332336025e-07   4.1805728308705992e-07   5.5826925281710311e-07   3.6792575857270481e-07   2.4826293887370685e-07   5.6063200222930179e-07   5.2059216724285293e-07   5.0058355783978360e-07   2.6145397664435191e-07   3.4955811843662692e-07   2.2529086533672100e-07   2.7250013943031631e-07   2.6944301903361488e-07   2.7249050649032764e-07   2.5736352761904519e-07   2.4823276514684054e-07   1.8213627826436530e-07   2.1749356180735136e-07   1.3072321117218573e-07   1.4328340601507464e-07   5.1819662066950359e-08   5.5808762213786540e-08   4.5958721357725699e-08   3.8549641427775983e-08   8.1539292393865186e-08   5.1122439539325224e-08   1.1141450175388547e-07   8.5573428577576717e-08   1.0375502495159904e-07   9.3638367754993000e-08   1.1896096611210456e-07   1.1979035939013696e-07   1.8158588815215773e-07   1.1770718624340272e-07   2.7390825527110583e-07   2.0591461066458675e-07   3.1351002175256816e-07   2.5168501668051852e-07   4.4839885375918355e-07   3.6641492766708163e-07   3.3414128017181628e-07   3.6326559190270248e-07   5.0262180581679140e-07   4.5292167420721760e-07   5.3214471647572711e-07   5.0027405625950815e-07   4.5614785309797541e-07   4.5040816318033652e-07   5.0873864539368852e-07   5.1577210124333363e-07   3.8954299891567121e-07   4.3549989441217924e-07   3.2393242114653560e-07   3.3496102600082945e-07   2.7276549496536878e-07   2.6497871841066861e-07   2.9909207290463072e-07   2.8489621203670118e-07   4.0076658955941388e-07   3.4645249175815814e-07   3.3761377994923140e-07   3.6335451060449177e-07   4.3128998018584387e-07   3.8289808489225318e-07   4.3469266153360275e-07   4.4702151938794066e-07   4.4045630268859146e-07   4.6667323071544839e-07   4.5612790869501386e-07   2.3691201348898041e-07   2.7639781910139836e-07   9.1069651857133303e-07   9.6869824250370859e-07   5.4212357596953714e-07   5.5035808476431949e-07   9.9945970336991598e-07   4.5686561463710193e-07   3.9222427928871728e-07   7.0986096243513006e-07   4.8803604703100556e-07   2.6409722751949472e-07   2.3446972637448692e-07   2.5721394563390927e-07   2.2577998964734449e-07   3.5325787410173950e-07   4.0754613155084222e-07   4.1040752954119478e-07   2.5208720854148928e-07   3.3384180947247506e-07   1.1870583316016233e-06   2.2618524506645651e-07   2.0942505508791117e-07   2.3556448724710299e-07   2.2723523090925180e-07   3.4394196343854265e-07   3.0812262076161948e-07   3.1456751644781518e-07   1.2595093102977850e-07   1.0324320381782118e-07   1.1589471101940201e-07   1.7382660885116090e-07   1.6414386683922397e-07   2.2121291976330174e-07   2.4106296809812054e-07   1.7779281654072262e-07   2.2101374399359367e-07   7.2202463963993757e-08   1.3395430057562703e-07   5.2065182953430948e-08   6.9499782614815381e-08   2.5240609452071839e-08   2.4432674542896046e-08   4.8007071583836842e-08   4.1966758228815618e-08   4.5422925562448123e-08   5.2606174525224964e-08   5.6530429632488923e-08   6.3750119551544835e-08   6.3868762907713737e-08   1.8591584442241030e-07   1.1771508230717877e-07   9.7265893893702082e-07   1.3649952148851982e-06   1.1623489476183265e-06   9.4448645832514294e-07   1.4720742847915042e-06   6.8818063281978461e-07   4.6921412923371090e-07   3.9169585738825338e-07   9.1927585099263970e-07   1.7444543451786817e-07   3.5298971963258175e-07   5.3517082029359052e-07   2.8898124054804094e-07   3.5130864310580017e-07   1.9385229070795617e-07   2.2397334737427088e-07   1.8496255085122176e-07   9.2697361930766997e-08   9.5962247563076327e-08   1.1759245574287421e-07   1.5771718130110248e-07   1.5846869687713885e-07   1.8505098124562822e-07   1.9705107290233737e-07   1.9175326762649566e-07   3.2142043896378154e-07   2.6692679282355571e-07   2.6630959553443212e-07   2.6024071754575478e-07   3.4979203312337117e-07   2.7959642907524628e-07   3.3288441018479682e-07   3.1332090785567052e-07   5.3238992085518770e-07   4.8081922964054262e-07   3.7560045430479174e-07   4.6560389655289031e-07   5.7239008670877594e-07   5.6601541280098089e-07   6.3913270388908463e-07   6.0762963406057645e-07   5.5561646442813209e-07   4.7297577245753713e-07   4.7713607806947339e-07   5.0458295081294484e-07   5.4351532007933729e-07   5.3017120555911741e-07   5.5439605035353801e-07   4.3222879261880057e-07   6.2178132131002182e-07   6.3731782823607677e-07   7.8160433352779682e-07   5.4924318108667361e-07   5.3007445744636212e-07   5.7966542726380247e-07   5.8879037499621472e-07   5.8091923273193791e-07   5.9605455902520719e-07   3.4513013595692455e-07   2.9612928398204411e-07   3.0925266057899383e-07   3.7088530762373598e-07   2.2904330455071513e-07   3.1015891459157956e-07   3.3483027228782981e-07   2.8925228521289813e-07   3.3733247328612539e-07   4.4135540171412286e-07   4.2232585152930849e-07   4.5581845453441587e-07   3.7031289156012573e-07   4.8858755887382401e-07   5.6299466913331101e-07   4.8356213624662644e-07   5.2380801304943699e-07   4.9819102226010793e-07   2.4770698858712509e-07   2.6540156498754559e-07   2.2179624437103290e-07   2.5380145167701594e-07   2.6986251273427742e-07   2.4544122495726168e-07   1.3441960385141422e-07   1.1572117074327589e-07   1.3328330713706586e-07   1.3997143690102892e-06   1.5334913111666386e-06   9.3412727633750995e-07   1.3423015214077548e-06   6.2683571053624885e-07   7.6226385644448251e-07   3.6166451088809999e-07   4.4216753143305670e-07   2.9814360061146819e-07   2.5235463537405794e-07   2.7551387644004541e-07   2.4419384758067052e-07   4.0934511732201547e-07   4.8922416001801352e-07   5.2003282532681205e-07   2.2190967343129294e-06   1.9995919954395018e-06   2.0298411099263783e-06   1.8905179754192489e-06   3.9237764036503503e-07   3.1643569722882315e-07   3.4358552416453200e-07   5.9718901429608422e-07   4.7838941068561024e-07   2.3071055247326062e-07   2.2270237744195841e-07   2.3931214188615822e-07   2.2917257501778248e-07   4.8304759327239990e-07   3.2180651518707485e-07   2.4813342362307422e-07   1.5582854860197320e-07   2.1938114489096875e-07   3.1959316081960151e-07   1.2120442418159887e-07   1.2454269087233048e-07   2.6215433387980730e-07   1.2954833872437244e-07   1.8400694353651818e-07   1.6104624530139009e-07   2.0779750267617993e-07   2.2931643095712173e-07   2.9686701801932566e-07   3.4555317339679522e-07   2.7475396996284511e-06   2.3364620266320726e-06   2.2270895645900420e-06   1.9309938360220393e-06   7.7168011845091433e-07   1.1064907540722640e-06   3.1543030884305233e-07   2.5692710448305436e-07   6.6175365587144770e-07   6.9858784495953801e-07   5.1337886651404727e-07   5.2074396188050733e-07   5.2505308117315716e-07   3.5272672317148683e-07   3.9263271524079272e-07   4.2782721663132605e-07   3.4515192926844184e-07   3.3518399168877970e-07   3.2419706024156091e-07   5.4562412827447423e-07   5.6238343833391962e-07   3.8379807875281546e-07   3.1736911689149329e-07   5.4510723906452451e-07   5.1279815474112944e-07   5.5730608543114717e-07   4.8268594219227689e-07   5.8960691239935107e-07   7.2488744258434030e-07   5.0935879143242372e-07   1.1393351040496989e-06   8.0287006923199822e-07   6.0877656076142660e-07   9.7708017335466805e-07   6.6152055049860112e-07   6.3427332255366669e-07   4.5245518611336585e-07   5.5220482481951466e-07   6.0865170643671275e-07   5.2029233124888564e-07   8.2211531879413078e-07   9.7377660479963822e-07   1.0937109304343746e-06   1.1492296427987183e-06   6.7134120001588545e-07   6.7803484444453643e-07   6.7656811671386187e-07   7.0440028197008782e-07   5.2057684109228551e-07   5.8061312786137509e-07   4.9290261545945739e-07   5.1024902182863894e-07   3.4321247822709684e-07   4.0430342537299982e-07   6.4332559473369172e-07   6.8082996787291634e-07   1.6913775350707942e-07   1.8230986997744063e-07   1.4327055498562602e-07   1.8782000346437079e-07   1.5475578931839327e-07   2.0570433997469438e-07   1.6699817886283952e-07   2.2829356129975791e-07   1.7823781606715206e-07   2.4472887645331233e-07   1.9415171784251708e-07   4.4996039327995724e-07   4.5810430720769011e-07   5.0877797965510921e-07   5.6739896549446249e-07   2.8570499964789947e-07   3.7172228728627001e-07   3.3986577671058945e-07   3.8580054739891747e-07   4.0054454589333461e-07   4.3542472866791011e-07   3.9847319180543476e-07   5.3505536659613972e-07   5.3909305925928671e-07   5.8589318006018170e-07   4.9311231858646051e-07   5.5104676982914142e-07   5.8417563706252997e-07   5.8207955575705143e-07   1.7510325777501806e-07   1.7072610384409202e-07   1.9902198383778571e-07   1.9892796534581552e-07   2.5000353198471226e-07   3.2220779688380738e-07   3.4705606328747372e-07   2.2914486103851308e-07   3.0058480867477983e-07   4.3185934349481034e-07   4.8369244968489290e-07   1.3168324404368590e-07   1.2212299069630630e-07   1.3179565032227152e-07   1.1032009353943500e-07   1.3044234757873305e-07   1.2170511640442005e-07   1.6123918526124144e-07   1.4831928292721513e-07   1.5097342144903342e-07   1.1056230084296937e-07   1.2553461732155163e-07   2.4099894521018946e-07   2.3074073862516343e-07   2.4224738462728182e-07   1.5195747413900582e-07   1.8733063484907114e-07   1.5193226335234743e-07   1.4592309258661936e-07   3.4618354740945482e-07   2.6810108206972196e-07   3.3525786047012369e-07   3.8853462462139575e-07   3.8847148339518271e-07   3.4208070567297971e-07   3.3571195375233209e-07   3.7351732710584160e-07   3.7342464387390499e-07   3.2274252431909620e-07   4.1853447449928802e-07   3.7750210166748317e-07   4.7439740564532017e-07   4.3181244426450200e-07   5.6717408030585306e-07   5.1814712055007812e-07   6.0684569079610360e-07   5.5425118503567627e-07   6.4462766718777951e-07   5.5716730622179995e-07   5.5113041322892537e-07   5.3915845876039041e-07   3.4288739703478018e-07   3.2715883268476253e-07   3.2504807134293686e-07   5.2691490953101201e-07   5.5465492421975733e-07   1.7772008455124011e-07   1.7943587161319420e-07   1.4501075551474855e-07   1.6639587279870799e-07   1.3218831862840435e-07   1.6317288664352297e-07   1.2201322181486777e-07   1.8190381546918296e-07   1.4098661277235231e-07   1.5852604230475197e-07   1.3551264502044638e-07   1.7830586083166304e-07   1.2976604333014408e-07   1.4404803075539880e-07   1.1028780948090590e-06   1.5608233163149946e-06   2.1135317488612641e-06   7.4512381972917231e-07   6.5872300388642998e-07   1.2760411790908698e-06   4.8703389314729625e-07   4.1781835384937423e-07   7.5207418664602496e-07   1.0513302323801297e-06   1.0363549145686753e-06   2.9332001811858588e-06   2.1711709761225786e-06   2.5154157323587104e-06   2.2151891087158338e-06   2.3584155157175273e-06   1.6937670348916725e-06   1.9521498779201076e-06   6.5262634311593495e-07   6.3265329527042954e-07   5.8444541429880332e-07   5.2999544753466097e-07   4.4757962126291780e-07   4.8968057312302761e-07   5.1937659174764343e-07   4.9885965665432022e-07   5.5885024449633536e-07   6.1553822437417218e-07   8.6693241650420544e-07   4.2623512010569411e-07   6.8461295739693941e-07   4.4540281894191166e-07   4.8628934344712942e-07   4.9703449284861493e-07   5.2835509655794711e-07   6.0954752243262966e-07   6.6539541744291725e-07   6.1910813686881589e-07   5.6605367318574834e-07   3.0231069408296388e-06   3.4528603762105968e-06   4.7723715536221219e-06   1.3152544443354408e-06   1.9006536280297995e-06   2.8878361551174048e-06   8.9554049755803630e-07   1.2208372860576145e-06   8.0619204501005815e-07   1.1292564860227605e-06   8.4177149807192081e-07   7.6109491141008822e-07   5.8968332846676590e-07   5.4638794062924876e-07   4.8281418434596473e-07   5.7494140292439240e-07   4.9565163415501938e-07   7.0565493121353453e-07   5.5050495693712754e-07   1.1039523091636483e-06   8.2577513332607063e-07   6.8209043688605897e-07   7.5121306712935789e-07   1.2741544270302295e-06   1.0593480623897940e-06   1.2548948276376587e-06   1.1763981091775033e-06   1.5062975968913949e-06   1.3739008562970528e-06   1.6876385828844241e-06   9.1500195386618597e-07   8.9739286105844752e-07   1.0442523194001374e-06   8.4573112967662999e-07   1.1513776195531785e-06   1.7416581136704852e-06   1.2439947125755015e-06   1.3969224298095529e-06   7.7885831266293991e-07   9.0685325402037908e-07   7.6895745547127643e-07   7.6725193559224879e-07   3.6004170062759436e-07   3.6572180757469821e-07   3.3425379555971341e-07   5.8163670407156170e-07   6.3719095012627653e-07   4.5359463585316076e-07   5.2810931264286463e-07   3.6458365280339350e-07   7.2312541655742347e-07   7.9168339806951673e-07   3.5982592650146474e-07   3.6817464420334461e-07   3.2131489520573994e-07   2.9733553546655813e-07   3.1711854438668222e-07   3.2460047348333103e-07   1.1317789886591492e-07   1.4439345618116439e-07   9.4135279808546174e-08   1.6446534181873427e-07   1.3219692350039129e-07   1.4381650094487892e-07   1.2481740630270958e-07   1.8118870343158976e-07   1.3690438774694170e-07   1.8610772252862716e-07   1.6808591036409651e-07   1.7940578984016366e-07   1.4661639084781921e-07   6.2350240451143000e-07   6.0626257012285735e-07   7.3186956101765529e-07   6.4259743535754776e-07   6.7730366889723778e-07   6.3034510676240214e-07   3.9288772599404893e-07   6.3171022652550026e-07   4.3502984072691748e-07   5.5535327984816314e-07   5.4826818754944255e-07   7.4185005960221591e-07   7.7249811914548561e-07   5.2940900447572739e-07   6.6936064630019871e-07   6.6269470741828593e-07   2.8882285873086418e-07   2.3951030723495736e-07   3.2321097889226111e-07   4.6885579520348206e-07   4.7822809499851355e-07   6.4080524386400572e-07   9.5520881207995903e-07   1.0698469291786134e-06   1.6590771772356224e-07   1.4951522136670746e-07   1.5073282358760732e-07   1.8792542179409482e-07   1.3667216358435083e-07   2.0531382967783644e-07   3.3542317162418836e-07   1.6311743394750998e-07   1.7721918163096095e-07   2.9192505550418699e-07   3.1536908600481487e-07   3.3373507751483499e-07   2.6948484125570711e-07   3.2307484486704780e-07   2.2362937745776518e-07   2.2486127207105720e-07   2.0362579575263851e-07   4.0357475313083212e-07   3.5519569579643089e-07   3.7600099689952616e-07   3.9830909728757873e-07   3.3887151273016055e-07   4.5986813918602164e-07   3.8642948990010433e-07   4.5758396328208280e-07   4.0310401714396279e-07   2.9378593915811132e-07   3.6521390588033447e-07   4.3865887430749020e-07   5.1062226687896441e-07   4.3161069257905333e-07   4.8454191576574773e-07   4.6287144371614334e-07   6.7372963630311099e-07   6.36534171