<?xml version="1.0"?>
<VTKFile type="UnstructuredGrid"  version="0.1"  >
<UnstructuredGrid>
<Piece  NumberOfPoints="21266" NumberOfCells="39409">
<Points>
<DataArray  type="Float64"  NumberOfComponents="3"  format="ascii">7.1769 4.82493 0  7.15599 4.841 0  7.13689 4.8551 0  7.1158 4.86986 0  7.09545 4.8833 0  7.0735 4.89909 0  7.2004 4.80826 0  7.2192 4.79324 0  7.2427 4.77631 0  7.2615 4.76004 0  7.2803 4.7447 0  7.2991 4.72921 0  7.31718 4.7141 0  7.33791 4.7 0  7.35423 4.6812 0  7.4495 4.58896 0  7.4683 4.56902 0  7.48701 4.5496 0  7.5039 4.5308 0  7.52 4.51291 0  7.53648 4.4932 0  7.5529 4.47481 0  7.17401 4.79802 0  7.15325 4.81426 0  7.13467 4.82894 0  7.11397 4.84383 0  7.09237 4.85558 0  7.07198 4.87138 0  7.05309 4.9115 0  7.05196 4.88634 0  7.0312 4.92685 0  7.0077 4.94116 0  7.19575 4.78239 0  7.21754 4.76837 0  7.23886 4.75218 0  7.25562 4.73534 0  7.27434 4.71992 0  7.29305 4.70439 0  7.3743 4.66399 0  7.3931 4.64533 0  7.4119 4.62616 0  7.4307 4.6086 0  7.31147 4.68903 0  7.32976 4.67219 0  7.34743 4.65373 0  7.56907 4.4556 0  7.58329 4.4368 0  7.59837 4.418 0  7.61305 4.3992 0  7.42335 4.581 0  7.44078 4.56169 0  7.47657 4.5264 0  7.45879 4.54253 0  7.49593 4.50844 0  7.51006 4.48936 0  7.52531 4.46995 0  7.54154 4.45075 0  7.1155 4.82061 0  7.16987 4.77069 0  7.14788 4.78758 0  7.12908 4.8052 0  7.09123 4.82654 0  7.06881 4.84355 0  7.04978 4.8604 0  7.02821 4.8991 0  7.03421 4.87544 0  7.00476 4.91014 0  6.9842 4.95543 0  6.9607 4.96994 0  6.93934 4.982 0  6.9184 4.99413 0  6.8949 5.0077 0  6.98145 4.92568 0  6.87443 5.0196 0  6.8526 5.03151 0  6.8291 5.04427 0  6.80549 5.0572 0  6.7821 5.06881 0  6.7586 5.08225 0  6.7351 5.09287 0  6.7116 5.10521 0  6.6881 5.11648 0  7.19272 4.75504 0  7.21665 4.74609 0  7.23042 4.72455 0  7.24824 4.71067 0  7.26973 4.69518 0  7.28646 4.67889 0  7.36559 4.63485 0  7.38342 4.61517 0  7.40426 4.59902 0  7.30423 4.66219 0  7.32137 4.64451 0  7.33935 4.62565 0  7.6281 4.379 0  7.6422 4.35929 0  7.6563 4.34009 0  7.67443 4.3193 0  7.55814 4.43199 0  7.57462 4.4151 0  7.59006 4.39525 0  7.60188 4.37551 0  7.4009 4.57326 0  7.41396 4.55444 0  7.4307 4.5342 0  7.47493 4.50372 0  7.44923 4.51424 0  7.485 4.48594 0  7.49758 4.46571 0  7.51313 4.44582 0  7.53056 4.42631 0  7.16772 4.73996 0  7.10435 4.80157 0  7.14271 4.7603 0  7.12093 4.78085 0  7.08185 4.80093 0  7.06371 4.81511 0  7.04358 4.832 0  7.02383 4.85045 0  7.00539 4.87652 0  6.97813 4.89407 0  6.95911 4.94168 0  6.93971 4.95578 0  6.91804 4.97033 0  6.89554 4.98171 0  6.87489 4.99508 0  6.95463 4.91127 0  6.85249 5.00745 0  6.82973 5.01717 0  6.80615 5.02883 0  6.78262 5.04136 0  6.75883 5.05356 0  6.73538 5.06548 0  6.71171 5.07745 0  6.66736 5.1277 0  6.6889 5.09005 0  6.66857 5.10307 0  7.6892 4.29795 0  7.78096 4.1407 0  7.70249 4.277 0  7.7691 4.16195 0  7.75678 4.183 0  7.7174 4.25497 0  7.72912 4.23 0  7.74292 4.2065 0  7.7926 4.11952 0  7.19623 4.72095 0  7.22149 4.69784 0  7.24709 4.68864 0  7.26072 4.66745 0  7.27958 4.65508 0  7.35596 4.60523 0  7.37586 4.58123 0  7.29133 4.63183 0  7.31613 4.62148 0  7.32791 4.59966 0  7.61643 4.3556 0  7.63282 4.3371 0  7.64817 4.3144 0  7.6624 4.29423 0  7.5494 4.40779 0  7.56853 4.39535 0  7.57509 4.37324 0  7.58865 4.35111 0  7.38542 4.55004 0  7.40218 4.5263 0  7.41892 4.50587 0  7.45946 4.48569 0  7.43505 4.48835 0  7.46877 4.46262 0  7.48316 4.44059 0  7.50057 4.42157 0  7.52053 4.39994 0  7.156 4.70458 0  7.1408 4.73494 0  7.09057 4.77616 0  7.10931 4.74763 0  7.05941 4.78525 0  7.0402 4.80507 0  7.01422 4.81688 0  6.99401 4.83891 0  6.97269 4.86114 0  6.94968 4.87903 0  6.93339 4.92954 0  6.91887 4.94835 0  6.89523 4.95505 0  6.87181 4.96799 0  6.85528 4.98657 0  6.92596 4.8974 0  6.83142 4.99095 0  6.80584 4.99996 0  6.78413 5.01302 0  6.73529 5.0367 0  6.75899 5.02675 0  6.71146 5.04906 0  6.68777 5.06204 0  6.6458 5.13871 0  6.62098 5.1512 0  6.5988 5.16279 0  6.64597 5.11434 0  6.66562 5.07608 0  6.64892 5.09369 0  6.57429 5.1747 0  6.5518 5.18561 0  6.5283 5.19672 0  7.67678 4.27344 0  7.65342 4.27244 0  7.76791 4.12016 0  7.75605 4.13966 0  7.68816 4.2524 0  7.74189 4.16147 0  7.72738 4.18138 0  7.70047 4.22914 0  7.71326 4.20492 0  7.8038 4.0984 0  7.81472 4.0749 0  7.77971 4.09887 0  7.86109 3.9809 0  7.18253 4.67983 0  7.22404 4.66203 0  7.25454 4.63507 0  7.27021 4.60915 0  7.34119 4.57632 0  7.35416 4.54866 0  7.29325 4.59534 0  7.31287 4.5746 0  7.13581 4.66432 0  7.60481 4.33106 0  7.62389 4.31457 0  7.63238 4.28784 0  7.54401 4.37792 0  7.5587 4.35201 0  7.57738 4.3254 0  7.36708 4.51353 0  7.39328 4.49781 0  7.40977 4.47505 0  7.43809 4.4633 0  7.4493 4.43448 0  7.46959 4.41333 0  7.49389 4.39733 0  7.50474 4.36871 0  7.10704 4.69993 0  7.06136 4.74104 0  7.02006 4.77609 0  6.94628 4.8503 0  6.98557 4.80104 0  6.96211 4.8272 0  6.92021 4.85963 0  6.90174 4.92376 0  6.86584 4.93962 0  6.83822 4.96125 0  6.88978 4.87871 0  6.80696 4.9733 0  6.78034 4.98216 0  6.76196 5.00183 0  6.71202 5.019 0  6.73503 5.00634 0  6.68661 5.03366 0  6.66135 5.04676 0  6.62341 5.12492 0  6.60062 5.13791 0  6.57598 5.1491 0  6.62498 5.09806 0  6.63497 5.0685 0  6.55217 5.15776 0  6.52795 5.1681 0  6.5048 5.20905 0  6.4813 5.2194 0  6.45602 5.2311 0  6.50367 5.17943 0  8.175240000000001 2.9281 0  8.17483 2.9046 0  8.17423 2.8811 0  8.174060000000001 2.8576 0  8.17165 2.8341 0  7.66054 4.25141 0  7.6336 4.25542 0  7.75902 4.10052 0  7.7333 4.1392 0  7.74084 4.11642 0  7.6704 4.2277 0  7.71251 4.15331 0  7.69687 4.17903 0  7.68277 4.20345 0  7.85116 4.0044 0  7.83862 4.0279 0  7.82746 4.0514 0  7.78904 4.07645 0  7.80125 4.05338 0  7.76369 4.07955 0  7.88387 3.9104 0  7.86962 3.9574 0  7.8772 3.93447 0  7.83694 3.9834 0  7.84642 3.96163 0  7.9125 3.8399 0  7.9007 3.86401 0  7.89251 3.8869 0  7.9242 3.81828 0  7.93714 3.7929 0  7.94966 3.7694 0  7.96124 3.7459 0  7.9712 3.72394 0  7.9806 3.7023 0  7.99072 3.6801 0  8.001659999999999 3.6566 0  8.087149999999999 3.4216 0  8.133559999999999 3.2571 0  8.095409999999999 3.3981 0  8.16422 3.0926 0  8.17474 2.9516 0  8.174110000000001 2.9751 0  8.166729999999999 3.0691 0  8.172639999999999 2.9986 0  8.170400000000001 3.0456 0  8.171239999999999 3.0221 0  7.17467 4.63462 0  7.21672 4.6218 0  7.23833 4.59746 0  7.26321 4.58321 0  7.31987 4.54885 0  7.33555 4.522 0  7.28125 4.55496 0  7.078 4.64761 0  7.11655 4.61904 0  7.14452 4.58878 0  7.59744 4.29841 0  7.60567 4.26319 0  7.5245 4.34575 0  7.54874 4.32635 0  7.55631 4.29734 0  7.33584 4.49112 0  7.36847 4.46828 0  7.40618 4.43358 0  7.43005 4.39967 0  7.46198 4.37186 0  7.48449 4.33447 0  7.04196 4.68162 0  7.00114 4.7206 0  6.97852 4.76275 0  6.92582 4.82296 0  6.94354 4.78428 0  6.88373 4.8294 0  6.85821 4.90133 0  6.82739 4.92231 0  6.80779 4.94706 0  6.85047 4.85705 0  6.77763 4.95422 0  6.68923 5.00653 0  6.74478 4.97187 0  6.70805 4.98747 0  6.63119 5.02825 0  6.66197 5.01202 0  6.59914 5.10863 0  6.58045 5.12778 0  6.55443 5.13039 0  6.59803 5.07802 0  6.6056 5.04652 0  6.528 5.13892 0  6.50252 5.14969 0  6.43421 5.2405 0  6.48009 5.19136 0  6.45715 5.20361 0  6.43649 5.2163 0  6.47803 5.16133 0  6.4108 5.25202 0  8.17079 2.8106 0  8.167149999999999 2.7871 0  8.154590000000001 2.93955 0  8.154109999999999 2.91651 0  8.15418 2.89326 0  8.153309999999999 2.87014 0  8.151289999999999 2.84913 0  8.149430000000001 2.82814 0  7.6399 4.22787 0  7.60964 4.22977 0  7.73817 4.08677 0  7.71461 4.12536 0  7.71671 4.10318 0  7.69331 4.13276 0  7.6504 4.20218 0  7.68013 4.15337 0  7.6652 4.17775 0  7.82434 4.00569 0  7.81248 4.02823 0  7.77107 4.05359 0  7.78856 4.03239 0  7.73981 4.05725 0  7.86843 3.89261 0  7.86032 3.91613 0  7.85377 3.9396 0  7.81516 3.98384 0  7.82305 3.96326 0  7.83403 3.94522 0  7.8965 3.81729 0  7.88316 3.84225 0  7.87622 3.86812 0  7.85458 3.87668 0  7.90753 3.79329 0  7.87802 3.79373 0  7.9333 3.74821 0  7.91938 3.76881 0  7.94615 3.72557 0  7.92535 3.72614 0  7.95529 3.70353 0  7.9654 3.68124 0  8.01069 3.6331 0  8.01989 3.6096 0  7.97586 3.65705 0  7.98482 3.63413 0  8.05498 3.5156 0  8.029820000000001 3.5861 0  8.03876 3.5626 0  8.04772 3.5391 0  8.030720000000001 3.51946 0  8.080640000000001 3.4451 0  8.072329999999999 3.4686 0  8.06363 3.4921 0  8.0641 3.42609 0  8.07094 3.40327 0  8.16114 3.1161 0  8.156940000000001 3.1396 0  8.138909999999999 3.2336 0  8.15274 3.1631 0  8.144220000000001 3.2101 0  8.14855 3.1866 0  8.10263 3.3746 0  8.10993 3.3511 0  8.115780000000001 3.3276 0  8.122439999999999 3.3041 0  8.12876 3.2806 0  8.10966 3.26397 0  8.11359 3.24102 0  8.078049999999999 3.37987 0  8.14321 3.07889 0  8.141349999999999 3.10148 0  8.15352 2.96247 0  8.15235 2.9842 0  8.145149999999999 3.05572 0  8.15104 3.00933 0  8.14743 3.03243 0  7.19201 4.57985 0  7.23443 4.55731 0  7.2971 4.50674 0  7.25047 4.51791 0  7.02161 4.61732 0  7.06736 4.59854 0  7.09621 4.56242 0  7.14317 4.54799 0  7.56834 4.26623 0  7.58264 4.23842 0  7.51214 4.30231 0  7.53449 4.27134 0  7.31111 4.44476 0  7.35601 4.42209 0  7.37649 4.38318 0  7.40713 4.35132 0  7.43696 4.31869 0  7.46789 4.29547 0  6.95252 4.58363 0  6.9763 4.65998 0  6.93501 4.72433 0  6.90184 4.77571 0  6.85805 4.78593 0  6.8346 4.81522 0  6.81401 4.88663 0  6.78449 4.91855 0  6.81425 4.84579 0  6.73904 4.92209 0  6.67455 4.97849 0  6.70206 4.94517 0  6.59506 5.01185 0  6.62898 4.98162 0  6.56515 5.09576 0  6.52968 5.10747 0  6.56876 5.04596 0  6.50118 5.12005 0  6.47599 5.13011 0  6.41366 5.22638 0  6.41804 5.20392 0  6.45471 5.17425 0  6.43421 5.18919 0  6.45079 5.1429 0  6.3873 5.26213 0  6.3906 5.23532 0  6.3638 5.27155 0  6.3403 5.28103 0  6.3168 5.29122 0  6.2933 5.29956 0  6.2698 5.30896 0  8.119630000000001 2.5051 0  8.164619999999999 2.7636 0  8.1614 2.7401 0  8.15827 2.7166 0  8.156560000000001 2.6931 0  8.15221 2.6696 0  8.147919999999999 2.6461 0  8.145910000000001 2.6226 0  8.12731 2.5286 0  8.131930000000001 2.5521 0  8.14226 2.5991 0  8.137460000000001 2.5756 0  8.143140000000001 2.80375 0  8.14217 2.77806 0  8.136570000000001 2.94954 0  8.133369999999999 2.92906 0  8.13245 2.90452 0  
[...]
<CellData  Scalars="f_10818"> 
<DataArray  type="Float64"  Name="f_10818"  format="ascii">5.4492435621624216e-06   4.3093407143213224e-06   4.8248389797636697e-06   3.2861726635452618e-06   3.7971452424358997e-06   2.9839921138894695e-06   3.5285285074560954e-06   2.5212466169504385e-06   3.0545584755671180e-06   2.0299865450268584e-06   2.5098785229866220e-06   1.2087413199990758e-06   1.7898565668850347e-06   4.8778594159024384e-06   5.5872327095817791e-06   5.6446076486838842e-06   5.3119267268609189e-06   4.9319840665390941e-06   5.5780655073990342e-06   5.2786729220476750e-06   4.9466983768660620e-06   5.1932841555515651e-06   5.3394965093443310e-06   4.8029201621331208e-06   5.1690454826314584e-06   4.9221152263656106e-06   4.7883279674230141e-06   4.6258712533519082e-06   5.1419711739816286e-06   4.3681071349672417e-06   4.2764869272357328e-06   1.5103506095979513e-06   9.4501911297730909e-07   1.1199292913894002e-06   1.4628733432091200e-07   4.6203745642018648e-07   2.6124902352476184e-07   6.4347739087707625e-07   3.2575945979070771e-08   6.5029879118580647e-08   5.5492419956203274e-08   9.8239007824744654e-09   2.1309802724303335e-07   8.8590486709055281e-08   5.1304360648216027e-07   3.1520007963356496e-07   2.8029331019524669e-06   5.6860112460062932e-06   5.0886880108893723e-06   5.7980349915958476e-06   3.7093261499654961e-06   4.5863460946937735e-06   2.7582952513431167e-06   3.2678629928675046e-06   3.5631227652134719e-06   2.6525239241554386e-06   3.4736876755080704e-06   1.8382109730283332e-06   2.3534534688199323e-06   1.0570462620048081e-06   1.4062378584796912e-06   1.1749992045726132e-06   1.3629478585943017e-06   7.9397939230425343e-07   1.1087358014744386e-06   5.3363186788884106e-07   7.7925441918156409e-07   5.8085646369454520e-06   6.2873412934243623e-06   4.6457965466491640e-06   5.3665627211664074e-06   5.8783695464420298e-06   5.3266106429965591e-06   5.4505470342255495e-06   5.3065428713725083e-06   4.8731025607312079e-06   5.7536120498126259e-06   4.8909566934364691e-06   4.7651825301050114e-06   3.9057432758043011e-06   4.1380153608068606e-06   3.2850368705462219e-06   3.5137046193512708e-06   2.1009613583397725e-06   1.7840933116462709e-06   2.6263747009694932e-06   4.8278287869545991e-06   4.9584270188773273e-06   4.5257248121406417e-06   4.6307243788049266e-06   3.9660945419277827e-06   4.2479759701600601e-06   8.0647469065008510e-07   6.5301024375388519e-07   1.1278436016666534e-06   9.1659083817586167e-07   1.5709498013583034e-06   1.4096834044942376e-06   2.4385618323773590e-06   1.8798516891624702e-06   1.4685633163432825e-06   1.1321164330447076e-06   1.1011801862548428e-06   6.7777869282415045e-07   9.0148807879156904e-07   4.2764030775327546e-08   2.8006110911189743e-07   1.6842262856649423e-07   4.9912650809331861e-07   4.5102274900158871e-09   1.3525331878539459e-08   8.9796880338914500e-08   4.0686755661439833e-08   3.2535594168072855e-07   1.9272031755646664e-07   6.7654615019261256e-07   4.9754665073313531e-07   6.8716581599057045e-06   3.1155599797327920e-06   3.2676786032026497e-06   6.0503818528828840e-06   7.6724391194169491e-06   4.8611152693630783e-06   5.9664370726989317e-06   4.2267418858384677e-06   4.0506387973877232e-06   4.0491946224942517e-06   3.7451303940243978e-06   2.9694614135362775e-06   3.4531361900102370e-06   2.0285289050279727e-06   2.7800928990616086e-06   1.4597048662806170e-06   1.9534807169949464e-06   2.0879355870523102e-06   1.2601413528405268e-06   1.8724069427995206e-06   4.6533792268134101e-07   4.7706361151275371e-07   4.7028476590864292e-07   3.7231391102739673e-07   6.5387892322767980e-07   4.7384453237920907e-07   1.2170957937916625e-06   7.0136268804422066e-07   1.4139941475147508e-06   1.0666772228675481e-06   1.0396334176802574e-06   1.1912092910254722e-06   2.0523526260975836e-06   1.5475746336074270e-06   3.2234516766512177e-06   2.1296227849873782e-06   4.2802573066723615e-06   3.2203160591789046e-06   4.9942897248841501e-06   4.2378385664953811e-06   6.1718918993499420e-06   5.0330922870037640e-06   6.7275988934713991e-06   6.1075295982942520e-06   7.5740062033438128e-06   6.6959968393424486e-06   7.7152015156663023e-06   7.2847474320801344e-06   6.5890813634880600e-06   6.5918597173419682e-06   8.0406556223795293e-06   7.3653219003353868e-06   9.1212918190897189e-06   5.8899789427711833e-06   8.8614700085838651e-06   4.6505788719175553e-06   5.8519477956497010e-06   5.5692103656651133e-06   5.2196744990610729e-06   4.5337837942692455e-06   4.8107141143045961e-06   3.5127613156373792e-06   3.6693940482956839e-06   3.0342930811388699e-06   2.2204577398211953e-06   3.5461627493208890e-06   5.7669042648958407e-06   5.1471929386902065e-06   3.4099130768381253e-06   4.7189678139925829e-06   3.7743591499704348e-06   3.3785314521808103e-06   2.9208265197114215e-06   2.7070723291551804e-06   3.0700921028637597e-06   3.0804881782990984e-06   4.6177032542817630e-06   3.9865811645248241e-06   5.0785265488635034e-06   4.7225415742074709e-06   1.0159782740361137e-06   9.0048794642996864e-07   1.1494362194605847e-06   9.9062755670742593e-07   2.0082268617230201e-06   1.5550069793798106e-06   2.8962550057806534e-06   2.6208344109795310e-06   1.4292067056946383e-06   2.1184189740813070e-06   1.1342617826637623e-06   1.5624422348190471e-06   6.9437332418809783e-07   9.4144116288853621e-07   7.4877722632623141e-08   1.9863394090364757e-07   5.2299149916144478e-07   3.3614240148571931e-07   1.3902082241142863e-07   1.4249219646968628e-07   3.2956751181599234e-07   2.7156976906950329e-07   6.4368694293583645e-07   4.8204495241214369e-07   1.1429081330782780e-06   9.9718882385615016e-07   1.2683979795277232e-05   6.6313132569480638e-06   8.8553852472451384e-06   5.8361163866812939e-06   3.9379993708164994e-06   8.8928636793496053e-06   8.2577433279207992e-06   7.9403625235297945e-06   4.1472384085757370e-06   5.5447649847063965e-06   3.5736114700472126e-06   4.3224549845915152e-06   4.2739622927167780e-06   4.3223021848551352e-06   4.0823548389173299e-06   3.9375207487637911e-06   2.8890842606709001e-06   3.4499289883525117e-06   2.0735592903339290e-06   2.2727917638276485e-06   8.2197446602927573e-07   8.8525041829034219e-07   7.2900698191735664e-07   6.1148258526420400e-07   1.2933935431547040e-06   8.1091497447744234e-07   1.7672804478876716e-06   1.3573838665808101e-06   1.6457842029586948e-06   1.4853116416664605e-06   1.8869840654690043e-06   1.9001400774854120e-06   2.8803538560224687e-06   1.8670963433768971e-06   4.3447908165937557e-06   3.2662612104643304e-06   4.9729624325213129e-06   3.9922810945052824e-06   7.1125976836871839e-06   5.8121512665439544e-06   5.3002198276151582e-06   5.7621958349564675e-06   7.9726936450715036e-06   7.1843396205202664e-06   8.4409923131167717e-06   7.9354531438458239e-06   7.2355139540699311e-06   7.1444697757206820e-06   8.0697202512757066e-06   8.1812864191307953e-06   6.1790136360879114e-06   6.9079916558074745e-06   5.1382847413687075e-06   5.3132228097498464e-06   4.3266641103467220e-06   4.2031486097560405e-06   4.7442618711357793e-06   4.5190841163741252e-06   6.3570446104003638e-06   5.4955028759064622e-06   5.3553013552916666e-06   5.7636062822559648e-06   6.8412131038024871e-06   6.0736106010554675e-06   6.8951871567454755e-06   7.0907501138809318e-06   6.9866112546995481e-06   7.4024697253310586e-06   7.2351975917217399e-06   3.7579485858462295e-06   4.3842808058840689e-06   1.4445661254993165e-05   1.5365696896995321e-05   8.5992790980326813e-06   8.7298966223396059e-06   1.5853641711014210e-05   7.2468992397766542e-06   6.2215446738253373e-06   1.1259965084272111e-05   7.7413312468742947e-06   4.1891662143547206e-06   3.7192085098451184e-06   4.0799821377560402e-06   3.5813700635619255e-06   5.6034512934542299e-06   6.4645831428038986e-06   6.5099712443738827e-06   3.9986607470730011e-06   5.2954695598911919e-06   1.8829370924943832e-05   3.5877983109384161e-06   3.3219446241588979e-06   3.7365738389075061e-06   3.6044534089850391e-06   5.4556803434417900e-06   4.8875063358161705e-06   4.9897366375774855e-06   1.9978603709405509e-06   1.6376655876231746e-06   1.8383464771096323e-06   2.7572745226997529e-06   2.6036848160613977e-06   3.5089262327934986e-06   3.8237919079032616e-06   2.8201873499501201e-06   3.5057668645070412e-06   1.1452907910924757e-06   2.1248115154768723e-06   8.2586897038364165e-07   1.1024202865344152e-06   4.0037189840827097e-07   3.8755626358808053e-07   7.6149834747609019e-07   6.6568561642765450e-07   7.2050807541822219e-07   8.3445029339151421e-07   8.9669765988704563e-07   1.0112179120346683e-06   1.0130998581038687e-06   2.9490365403782642e-06   1.8672215924145515e-06   1.5428522303530628e-05   2.1651843492112684e-05   1.8437425437546716e-05   1.4981644443197322e-05   2.3350354400876035e-05   1.0916067099451490e-05   7.4427739963254718e-06   6.2131627336090212e-06   1.4581748444770439e-05   2.7670904666227264e-06   5.5991977704128361e-06   8.4889930134421270e-06   4.5838817046908036e-06   5.5725321781388017e-06   3.0749261339712484e-06   3.5527127207989192e-06   2.9339151956436732e-06   1.4703852077792775e-06   1.5221735158696870e-06   1.8652764638534179e-06   2.5017433675295599e-06   2.5136640669259985e-06   2.9353178973079394e-06   3.1256658953146004e-06   3.0416309848377503e-06   5.0984391474187400e-06   4.2340493791059080e-06   4.2242592648534001e-06   4.1279934355298718e-06   5.5484753890599546e-06   4.4350178354287963e-06   5.2802830894111659e-06   4.9699626677945517e-06   8.4448817969697162e-06   7.6268565593841890e-06   5.9578540375013327e-06   7.3855077201342978e-06   9.0793729082028579e-06   8.9782564791782931e-06   1.0138058452066543e-05   9.6383500794585419e-06   8.8133061553997635e-06   7.5024419786504179e-06   7.5684336282963445e-06   8.0038017427842323e-06   8.6213552381669407e-06   8.4096880645520902e-06   8.7939476886076699e-06   6.8561047456523543e-06   9.8628271429184957e-06   1.0109270509685482e-05   1.2397973646907050e-05   8.7122117838331978e-06   8.4081534254758811e-06   9.1947759025368127e-06   9.3395177580549643e-06   9.2146640306925454e-06   9.4547437852076724e-06   5.4745273878337042e-06   4.6972654851027493e-06   4.9054312669799589e-06   5.8830613811848031e-06   3.6331334564169086e-06   4.9198064602631088e-06   5.3111487666330571e-06   4.5881810726291544e-06   5.3508392093614195e-06   7.0008729540612101e-06   6.6990221945612080e-06   7.2302889642187406e-06   5.8739815962255155e-06   7.7500794446514599e-06   8.9303408026917475e-06   7.6703651254954710e-06   8.3087537558985334e-06   7.9024116169217876e-06   3.9291807695033142e-06   4.2098558918064697e-06   3.5181790513924113e-06   4.0258524351266189e-06   4.2806163907338267e-06   3.8932407464402670e-06   2.1321922546866860e-06   1.8355937444573284e-06   2.1141680752966199e-06   2.2202566075677346e-05   2.4324564294305805e-05   1.4817324902251940e-05   2.1291871314867387e-05   9.9430009364095645e-06   1.2091190899023272e-05   5.7367991484565437e-06   7.0137551278430545e-06   4.7292170025352240e-06   4.0029027281885597e-06   4.3702595199842732e-06   3.8734545820354009e-06   6.4931190365104879e-06   7.7601773469668716e-06   8.2488709278621110e-06   3.5199782871944293e-05   3.1717952166578576e-05   3.2197770033705680e-05   2.9987796936156999e-05   6.2239773197319970e-06   5.0193701172002188e-06   5.4500264281084321e-06   9.4727387552310342e-06   7.5883142559733471e-06   3.6595796964387158e-06   3.5325523262733197e-06   3.7960199313352079e-06   3.6351839719722849e-06   7.6622033357495903e-06   5.1045631703248831e-06   3.9359449724523333e-06   2.4717854752456249e-06   3.4798702314126872e-06   5.0694544740932254e-06   1.9225702730044606e-06   1.9755225670011361e-06   4.1583476235277889e-06   2.0549232144811831e-06   2.9187571498188748e-06   2.5545496864993567e-06   3.2961280427455219e-06   3.6374658453810450e-06   4.7089675788095560e-06   5.4812376973932630e-06   4.3582057223346982e-05   3.7061456021409392e-05   3.5326566840365438e-05   3.0629833618354380e-05   1.2240553643317650e-05   1.7551390928983827e-05   5.0034224334720013e-06   4.0754322026078636e-06   1.0496876788294850e-05   1.1081148504852686e-05   8.1433244224634315e-06   8.2601511266453206e-06   8.3285032904447667e-06   5.5950260647888929e-06   6.2280233714899091e-06   6.7862860141577480e-06   5.4748730779613667e-06   5.3167595387632419e-06   5.1424825028003315e-06   8.6548056008481312e-06   8.9206453301642817e-06   6.0878864944800535e-06   5.0341762177844453e-06   8.6466065946138773e-06   8.1341130492042975e-06   8.8401072819673081e-06   7.6564667496428597e-06   9.3524698474581976e-06   1.1498318298173653e-05   8.0795571392197552e-06   1.8072374971679828e-05   1.2735295255210794e-05   9.6565428739481981e-06   1.5498652861212306e-05   1.0493179221449889e-05   1.0060977915083242e-05   7.1769400874751534e-06   8.7591900046236819e-06   9.6545624081791431e-06   8.2529872658160352e-06   1.3040567483964380e-05   1.5446250956400589e-05   1.7348674656980144e-05   1.8229324243064928e-05   1.0648956446175944e-05   1.0755132453227558e-05   1.0731866907001540e-05   1.1173346613012910e-05   8.2575002212711183e-06   9.2098085303381666e-06   7.8185257870509154e-06   8.0936781625028643e-06   5.4441090943591304e-06   6.4131466499224127e-06   1.0204566975581511e-05   1.0799469293644545e-05   2.6828989051443805e-06   2.8918378092270131e-06   2.2725879180739825e-06   2.9792407148039955e-06   2.4547691400530146e-06   3.2629258522016352e-06   2.6489605185247061e-06   3.6212408700166162e-06   2.8272460267829834e-06   3.8819413234451159e-06   3.0796757106614185e-06   7.1373671546287972e-06   7.2665476439475596e-06   8.0703441796697607e-06   9.0002026853301931e-06   4.5319132769345942e-06   5.8963377300406119e-06   5.3910230053677242e-06   6.1196500766892932e-06   6.3535225066933756e-06   6.9067993608359596e-06   6.3206662490017942e-06   8.4871616624157152e-06   8.5512083994726343e-06   9.2935618377433203e-06   7.8218521425108598e-06   8.7408206908463576e-06   9.2663178065769846e-06   9.2330693205178550e-06   2.7775249985932144e-06   2.7080936549373542e-06   3.1569289024269099e-06   3.1554375611743546e-06   3.9656090277676435e-06   5.1109283856745122e-06   5.5050768554680412e-06   3.6347443669574084e-06   4.7679399623978408e-06   6.8502444653203960e-06   7.6724321848811009e-06   2.0887875352789208e-06   1.9371407698066892e-06   2.0905705475011817e-06   1.7499207127638011e-06   2.0691041724684936e-06   1.9305123591949671e-06   2.5576101410478422e-06   2.3526719110678603e-06   2.3947724190067334e-06   1.7537626563630012e-06   1.9912567146377067e-06   3.8227763632813335e-06   3.6600585155800010e-06   3.8425793739977776e-06   2.4103816714047851e-06   2.9714782460767314e-06   2.4099817725618532e-06   2.3146630318673155e-06   5.4912368236282057e-06   4.2526762040904932e-06   5.3179312610338950e-06   6.1630185892459221e-06   6.1620170297291144e-06   5.4261566781578442e-06   5.3251341849489289e-06   5.9248110322263143e-06   5.9233408711514963e-06   5.1194103456209906e-06   6.6388825682985092e-06   5.9880183711379511e-06   7.5249922256765134e-06   6.8495005397861200e-06   8.9966355087904825e-06   8.2189594789038716e-06   9.6259150051931300e-06   8.7916498042227515e-06   1.0225220724901516e-05   8.8379059367259361e-06   8.7421474601870125e-06   8.5522457802245422e-06   5.4389525875659315e-06   5.1894627652218425e-06   5.1559814213137983e-06   8.3580360065846330e-06   8.7980540007576749e-06   2.8190336597129441e-06   2.8462498378549055e-06   2.3001913478080737e-06   2.6394066120401150e-06   2.0967991354229404e-06   2.5882829223389961e-06   1.9353995925371298e-06   2.8853968865291151e-06   2.2363595424668222e-06   2.5145736922566462e-06   2.1495303054463085e-06   2.8283253672638655e-06   2.0583764910936323e-06   2.2849204035673045e-06   1.7494086161828505e-05   2.4758110354646749e-05   3.3525288691802440e-05   1.1819312002773716e-05   1.0448803943977761e-05   2.0240835717134848e-05   7.7254348695035424e-06   6.6275233107243128e-06   1.1929560196361008e-05   1.6676423039281825e-05   1.6438881373228904e-05   4.6527043143820991e-05   3.4439574334755041e-05   3.9900057641747381e-05   3.5137799286264703e-05   3.7409686919657746e-05   2.6866891804202053e-05   3.0965415240249011e-05   1.0352097418278914e-05   1.0035280698853455e-05   9.2705970702943723e-06   8.4069001535054660e-06   7.0996028441454266e-06   7.7674170684030463e-06   8.2384616117007831e-06   7.9130176374404993e-06   8.8646010604375889e-06   9.7637978157186488e-06   1.3751465789546205e-05   6.7610318415266630e-06   1.0859475875508928e-05   7.0650739442241586e-06   7.7136246643069976e-06   7.8840665022001000e-06   8.3808805585409234e-06   9.6687720314288167e-06   1.0554643182433849e-05   9.8204245245685383e-06   8.9788633735132509e-06   4.7953163226486485e-05   5.4770003330829874e-05   7.5700369377432094e-05   2.0862844844076385e-05   3.0148570806732450e-05   4.5807469344663812e-05   1.4205253236441664e-05   1.9365179862024825e-05   1.2787989139296833e-05   1.7912505795761632e-05   1.3352357966989176e-05   1.2072648845058830e-05   9.3536819753205286e-06   8.6669213543559717e-06   7.6585009538733663e-06   9.1198424269213261e-06   7.8621313044214240e-06   1.1193248125311560e-05   8.7322263398831157e-06   1.7511125577665893e-05   1.3098620237989861e-05   1.0819463120363984e-05   1.1915900936021059e-05   2.0210907655937309e-05   1.6803603558760999e-05   1.9905407807131045e-05   1.8660276216771116e-05   2.3893211833113211e-05   2.1793106664278880e-05   2.6769680999165703e-05   1.4513954982438636e-05   1.4234635819006023e-05   1.6564151682999917e-05   1.3415166482987380e-05   1.8263395905738221e-05   2.7626550249213258e-05   1.9732507871073921e-05   2.2158279744154304e-05   1.2354415681762886e-05   1.4384698577872864e-05   1.2197366185900884e-05   1.2170312867991348e-05   5.7110577880512557e-06   5.8011568486896845e-06   5.3020045705524396e-06   9.2260447131933507e-06   1.0107257942208334e-05   7.1950142808232913e-06   8.3769818819711328e-06   5.7831031964062301e-06   1.1470368667766315e-05   1.2557849905537382e-05   5.7076351331161744e-06   5.8400642633209550e-06   5.0967649899522946e-06   4.7163993018883082e-06   5.0302015835890835e-06   5.1488815291692272e-06   1.7952518267377559e-06   2.2903996149046920e-06   1.4931937660106021e-06   2.6087841203425311e-06   2.0969356277267225e-06   2.2812478286260388e-06   1.9798801614004152e-06   2.8740536277774045e-06   2.1716064236383395e-06   2.9520801515793504e-06   2.6662143462083715e-06   2.8457726743934359e-06   2.3256602758731326e-06   9.8901273295472831e-06   9.6166654214463521e-06   1.1609070141046859e-05   1.0193016757179537e-05   1.0743534391679217e-05   9.9986677233783929e-06   6.2320684061230950e-06   1.0020321542480706e-05   6.9005355645954278e-06   8.8091314657943443e-06   8.6967462296365393e-06   1.1767382925567700e-05   1.2253528943759856e-05   8.3975978693724934e-06   1.0617540483239207e-05   1.0511803947443729e-05   4.5813694187281033e-06   3.7991632721110072e-06   5.1268410713779319e-06   7.4370900259673345e-06   7.5857554323440465e-06   1.0164588635745123e-05   1.5151724691710063e-05   1.6970138809637428e-05   2.6316633927440548e-06   2.3716421401468444e-06   2.3909560047194614e-06   2.9809128826999000e-06   2.1679228347373122e-06   3.2567314950804979e-06   5.3205534616074039e-06   2.5874033199182704e-06   2.8110882313946977e-06   4.6305771216454888e-06   5.0024513038319736e-06   5.2937765549508117e-06   4.2746256856703525e-06   5.1246816846081132e-06   3.5472565970579929e-06   3.5667971705888810e-06   3.2299555430777409e-06   6.4015882963309008e-06   5.6341894320143818e-06   5.9642075290583293e-06   6.3180633469697972e-06   5.3752517793155627e-06   7.2945259207390559e-06   6.1296264959857090e-06   7.2582938382810044e-06   6.3941213823061145e-06   4.6600948526912924e-06   5.7931004043331023e-06   6.9581000646444978e-06   8.0995986546231138e-06   6.8463003117779955e-06   7.6859065959515465e-06   7.3421649739285646e-06   1.0686842328937987e-05   1.00968399