<?xml version="1.0"?>
<VTKFile type="UnstructuredGrid"  version="0.1"  >
<UnstructuredGrid>
<Piece  NumberOfPoints="16641" NumberOfCells="32768">
<Points>
<DataArray  type="Float64"  NumberOfComponents="3"  format="ascii">0 0 0  0.0078125 0 0  0.015625 0 0  0.0234375 0 0  0.03125 0 0  0.0390625 0 0  0.046875 0 0  0.0546875 0 0  0.0625 0 0  0.0703125 0 0  0.078125 0 0  0.0859375 0 0  0.09375 0 0  0.1015625 0 0  0.109375 0 0  0.1171875 0 0  0.125 0 0  0.1328125 0 0  0.140625 0 0  0.1484375 0 0  0.15625 0 0  0.1640625 0 0  0.171875 0 0  0.1796875 0 0  0.1875 0 0  0.1953125 0 0  0.203125 0 0  0.2109375 0 0  0.21875 0 0  0.2265625 0 0  0.234375 0 0  0.2421875 0 0  0.25 0 0  0.2578125 0 0  0.265625 0 0  0.2734375 0 0  0.28125 0 0  0.2890625 0 0  0.296875 0 0  0.3046875 0 0  0.3125 0 0  0.3203125 0 0  0.328125 0 0  0.3359375 0 0  0.34375 0 0  0.3515625 0 0  0.359375 0 0  0.3671875 0 0  0.375 0 0  0.3828125 0 0  0.390625 0 0  0.3984375 0 0  0.40625 0 0  0.4140625 0 0  0.421875 0 0  0.4296875 0 0  0.4375 0 0  0.4453125 0 0  0.453125 0 0  0.4609375 0 0  0.46875 0 0  0.4765625 0 0  0.484375 0 0  0.4921875 0 0  0.5 0 0  0.5078125 0 0  0.515625 0 0  0.5234375 0 0  0.53125 0 0  0.5390625 0 0  0.546875 0 0  0.5546875 0 0  0.5625 0 0  0.5703125 0 0  0.578125 0 0  0.5859375 0 0  0.59375 0 0  0.6015625 0 0  0.609375 0 0  0.6171875 0 0  0.625 0 0  0.6328125 0 0  0.640625 0 0  0.6484375 0 0  0.65625 0 0  0.6640625 0 0  0.671875 0 0  0.6796875 0 0  0.6875 0 0  0.6953125 0 0  0.703125 0 0  0.7109375 0 0  0.71875 0 0  0.7265625 0 0  0.734375 0 0  0.7421875 0 0  0.75 0 0  0.7578125 0 0  0.765625 0 0  0.7734375 0 0  0.78125 0 0  0.7890625 0 0  0.796875 0 0  0.8046875 0 0  0.8125 0 0  0.8203125 0 0  0.828125 0 0  0.8359375 0 0  0.84375 0 0  0.8515625 0 0  0.859375 0 0  0.8671875 0 0  0.875 0 0  0.8828125 0 0  0.890625 0 0  0.8984375 0 0  0.90625 0 0  0.9140625 0 0  0.921875 0 0  0.9296875 0 0  0.9375 0 0  0.9453125 0 0  0.953125 0 0  0.9609375 0 0  0.96875 0 0  0.9765625 0 0  0.984375 0 0  0.9921875 0 0  1 0 0  0 0.0078125 0  0.0078125 0.0078125 0  0.015625 0.0078125 0  0.0234375 0.0078125 0  0.03125 0.0078125 0  0.0390625 0.0078125 0  0.046875 0.0078125 0  0.0546875 0.0078125 0  0.0625 0.0078125 0  0.0703125 0.0078125 0  0.078125 0.0078125 0  0.0859375 0.0078125 0  0.09375 0.0078125 0  0.1015625 0.0078125 0  0.109375 0.0078125 0  0.1171875 0.0078125 0  0.125 0.0078125 0  0.1328125 0.0078125 0  0.140625 0.0078125 0  0.1484375 0.0078125 0  0.15625 0.0078125 0  0.1640625 0.0078125 0  0.171875 0.0078125 0  0.1796875 0.0078125 0  0.1875 0.0078125 0  0.1953125 0.0078125 0  0.203125 0.0078125 0  0.2109375 0.0078125 0  0.21875 0.0078125 0  0.2265625 0.0078125 0  0.234375 0.0078125 0  0.2421875 0.0078125 0  0.25 0.0078125 0  0.2578125 0.0078125 0  0.265625 0.0078125 0  0.2734375 0.0078125 0  0.28125 0.0078125 0  0.2890625 0.0078125 0  0.296875 0.0078125 0  0.3046875 0.0078125 0  0.3125 0.0078125 0  0.3203125 0.0078125 0  0.328125 0.0078125 0  0.3359375 0.0078125 0  0.34375 0.0078125 0  0.3515625 0.0078125 0  0.359375 0.0078125 0  0.3671875 0.0078125 0  0.375 0.0078125 0  0.3828125 0.0078125 0  0.390625 0.0078125 0  0.3984375 0.0078125 0  0.40625 0.0078125 0  0.4140625 0.0078125 0  0.421875 0.0078125 0  0.4296875 0.0078125 0  0.4375 0.0078125 0  0.4453125 0.0078125 0  0.453125 0.0078125 0  0.4609375 0.0078125 0  0.46875 0.0078125 0  0.4765625 0.0078125 0  0.484375 0.0078125 0  0.4921875 0.0078125 0  0.5 0.0078125 0  0.5078125 0.0078125 0  0.515625 0.0078125 0  0.5234375 0.0078125 0  0.53125 0.0078125 0  0.5390625 0.0078125 0  0.546875 0.0078125 0  0.5546875 0.0078125 0  0.5625 0.0078125 0  0.5703125 0.0078125 0  0.578125 0.0078125 0  0.5859375 0.0078125 0  0.59375 0.0078125 0  0.6015625 0.0078125 0  0.609375 0.0078125 0  0.6171875 0.0078125 0  0.625 0.0078125 0  0.6328125 0.0078125 0  0.640625 0.0078125 0  0.6484375 0.0078125 0  0.65625 0.0078125 0  0.6640625 0.0078125 0  0.671875 0.0078125 0  0.6796875 0.0078125 0  0.6875 0.0078125 0  0.6953125 0.0078125 0  0.703125 0.0078125 0  0.7109375 0.0078125 0  0.71875 0.0078125 0  0.7265625 0.0078125 0  0.734375 0.0078125 0  0.7421875 0.0078125 0  0.75 0.0078125 0  0.7578125 0.0078125 0  0.765625 0.0078125 0  0.7734375 0.0078125 0  0.78125 0.0078125 0  0.7890625 0.0078125 0  0.796875 0.0078125 0  0.8046875 0.0078125 0  0.8125 0.0078125 0  0.8203125 0.0078125 0  0.828125 0.0078125 0  0.8359375 0.0078125 0  0.84375 0.0078125 0  0.8515625 0.0078125 0  0.859375 0.0078125 0  0.8671875 0.0078125 0  0.875 0.0078125 0  0.8828125 0.0078125 0  0.890625 0.0078125 0  0.8984375 0.0078125 0  0.90625 0.0078125 0  0.9140625 0.0078125 0  0.921875 0.0078125 0  0.9296875 0.0078125 0  0.9375 0.0078125 0  0.9453125 0.0078125 0  0.953125 0.0078125 0  0.9609375 0.0078125 0  0.96875 0.0078125 0  0.9765625 0.0078125 0  0.984375 0.0078125 0  0.9921875 0.0078125 0  1 0.0078125 0  0 0.015625 0  0.0078125 0.015625 0  0.015625 0.015625 0  0.0234375 0.015625 0  0.03125 0.015625 0  0.0390625 0.015625 0  0.046875 0.015625 0  0.0546875 0.015625 0  0.0625 0.015625 0  0.0703125 0.015625 0  0.078125 0.015625 0  0.0859375 0.015625 0  0.09375 0.015625 0  0.1015625 0.015625 0  0.109375 0.015625 0  0.1171875 0.015625 0  0.125 0.015625 0  0.1328125 0.015625 0  0.140625 0.015625 0  0.1484375 0.015625 0  0.15625 0.015625 0  0.1640625 0.015625 0  0.171875 0.015625 0  0.1796875 0.015625 0  0.1875 0.015625 0  0.1953125 0.015625 0  0.203125 0.015625 0  0.2109375 0.015625 0  0.21875 0.015625 0  0.2265625 0.015625 0  0.234375 0.015625 0  0.2421875 0.015625 0  0.25 0.015625 0  0.2578125 0.015625 0  0.265625 0.015625 0  0.2734375 0.015625 0  0.28125 0.015625 0  0.2890625 0.015625 0  0.296875 0.015625 0  0.3046875 0.015625 0  0.3125 0.015625 0  0.3203125 0.015625 0  0.328125 0.015625 0  0.3359375 0.015625 0  0.34375 0.015625 0  0.3515625 0.015625 0  0.359375 0.015625 0  0.3671875 0.015625 0  0.375 0.015625 0  0.3828125 0.015625 0  0.390625 0.015625 0  0.3984375 0.015625 0  0.40625 0.015625 0  0.4140625 0.015625 0  0.421875 0.015625 0  0.4296875 0.015625 0  0.4375 0.015625 0  0.4453125 0.015625 0  0.453125 0.015625 0  0.4609375 0.015625 0  0.46875 0.015625 0  0.4765625 0.015625 0  0.484375 0.015625 0  0.4921875 0.015625 0  0.5 0.015625 0  0.5078125 0.015625 0  0.515625 0.015625 0  0.5234375 0.015625 0  0.53125 0.015625 0  0.5390625 0.015625 0  0.546875 0.015625 0  0.5546875 0.015625 0  0.5625 0.015625 0  0.5703125 0.015625 0  0.578125 0.015625 0  0.5859375 0.015625 0  0.59375 0.015625 0  0.6015625 0.015625 0  0.609375 0.015625 0  0.6171875 0.015625 0  0.625 0.015625 0  0.6328125 0.015625 0  0.640625 0.015625 0  0.6484375 0.015625 0  0.65625 0.015625 0  0.6640625 0.015625 0  0.671875 0.015625 0  0.6796875 0.015625 0  0.6875 0.015625 0  0.6953125 0.015625 0  0.703125 0.015625 0  0.7109375 0.015625 0  0.71875 0.015625 0  0.7265625 0.015625 0  0.734375 0.015625 0  0.7421875 0.015625 0  0.75 0.015625 0  0.7578125 0.015625 0  0.765625 0.015625 0  0.7734375 0.015625 0  0.78125 0.015625 0  0.7890625 0.015625 0  0.796875 0.015625 0  0.8046875 0.015625 0  0.8125 0.015625 0  0.8203125 0.015625 0  0.828125 0.015625 0  0.8359375 0.015625 0  0.84375 0.015625 0  0.8515625 0.015625 0  0.859375 0.015625 0  0.8671875 0.015625 0  0.875 0.015625 0  0.8828125 0.015625 0  0.890625 0.015625 0  0.8984375 0.015625 0  0.90625 0.015625 0  0.9140625 0.015625 0  0.921875 0.015625 0  0.9296875 0.015625 0  0.9375 0.015625 0  0.9453125 0.015625 0  0.953125 0.015625 0  0.9609375 0.015625 0  0.96875 0.015625 0  0.9765625 0.015625 0  0.984375 0.015625 0  0.9921875 0.015625 0  1 0.015625 0  0 0.0234375 0  0.0078125 0.0234375 0  0.015625 0.0234375 0  0.0234375 0.0234375 0  0.03125 0.0234375 0  0.0390625 0.0234375 0  0.046875 0.0234375 0  0.0546875 0.0234375 0  0.0625 0.0234375 0  0.0703125 0.0234375 0  0.078125 0.0234375 0  0.0859375 0.0234375 0  0.09375 0.0234375 0  0.1015625 0.0234375 0  0.109375 0.0234375 0  0.1171875 0.0234375 0  0.125 0.0234375 0  0.1328125 0.0234375 0  0.140625 0.0234375 0  0.1484375 0.0234375 0  0.15625 0.0234375 0  0.1640625 0.0234375 0  0.171875 0.0234375 0  0.1796875 0.0234375 0  0.1875 0.0234375 0  0.1953125 0.0234375 0  0.203125 0.0234375 0  0.2109375 0.0234375 0  0.21875 0.0234375 0  0.2265625 0.0234375 0  0.234375 0.0234375 0  0.2421875 0.0234375 0  0.25 0.0234375 0  0.2578125 0.0234375 0  0.265625 0.0234375 0  0.2734375 0.0234375 0  0.28125 0.0234375 0  0.2890625 0.0234375 0  0.296875 0.0234375 0  0.3046875 0.0234375 0  0.3125 0.0234375 0  0.3203125 0.0234375 0  0.328125 0.0234375 0  0.3359375 0.0234375 0  0.34375 0.0234375 0  0.3515625 0.0234375 0  0.359375 0.0234375 0  0.3671875 0.0234375 0  0.375 0.0234375 0  0.3828125 0.0234375 0  0.390625 0.0234375 0  0.3984375 0.0234375 0  0.40625 0.0234375 0  0.4140625 0.0234375 0  0.421875 0.0234375 0  0.4296875 0.0234375 0  0.4375 0.0234375 0  0.4453125 0.0234375 0  0.453125 0.0234375 0  0.4609375 0.0234375 0  0.46875 0.0234375 0  0.4765625 0.0234375 0  0.484375 0.0234375 0  0.4921875 0.0234375 0  0.5 0.0234375 0  0.5078125 0.0234375 0  0.515625 0.0234375 0  0.5234375 0.0234375 0  0.53125 0.0234375 0  0.5390625 0.0234375 0  0.546875 0.0234375 0  0.5546875 0.0234375 0  0.5625 0.0234375 0  0.5703125 0.0234375 0  0.578125 0.0234375 0  0.5859375 0.0234375 0  0.59375 0.0234375 0  0.6015625 0.0234375 0  0.609375 0.0234375 0  0.6171875 0.0234375 0  0.625 0.0234375 0  0.6328125 0.0234375 0  0.640625 0.0234375 0  0.6484375 0.0234375 0  0.65625 0.0234375 0  0.6640625 0.0234375 0  0.671875 0.0234375 0  0.6796875 0.0234375 0  0.6875 0.0234375 0  0.6953125 0.0234375 0  0.703125 0.0234375 0  0.7109375 0.0234375 0  0.71875 0.0234375 0  0.7265625 0.0234375 0  0.734375 0.0234375 0  0.7421875 0.0234375 0  0.75 0.0234375 0  0.7578125 0.0234375 0  0.765625 0.0234375 0  0.7734375 0.0234375 0  0.78125 0.0234375 0  0.7890625 0.0234375 0  0.796875 0.0234375 0  0.8046875 0.0234375 0  0.8125 0.0234375 0  0.8203125 0.0234375 0  0.828125 0.0234375 0  0.8359375 0.0234375 0  0.84375 0.0234375 0  0.8515625 0.0234375 0  0.859375 0.0234375 0  0.8671
[...]
<CellData  Scalars="f_96983"> 
<DataArray  type="Float64"  Name="f_96983"  format="ascii">1.7682422327524162e-13   1.7682422327528169e-13   3.8394821667630248e-14   6.4179424865869709e-14   3.5716881683146240e-14   3.9383657516926746e-14   3.7164004569495312e-14   3.7800253231567385e-14   3.8471962220147355e-14   3.8626963336322693e-14   3.9458492916000806e-14   3.9641618396872496e-14   4.0206253475209991e-14   4.0496443648960262e-14   4.0780594262378827e-14   4.1171228253474037e-14   4.1222339136812407e-14   4.1694097616768284e-14   4.1556866592170951e-14   4.2092046037556807e-14   4.1800404817386670e-14   4.2384966228156920e-14   4.1963699902182530e-14   4.2586846428770039e-14   4.2054134580230056e-14   4.2707548016789574e-14   4.2076978499204866e-14   4.2754161334161324e-14   4.2036147673182932e-14   4.2731929140107867e-14   4.1934678963464950e-14   4.2644859691760690e-14   4.1775035028705579e-14   4.2496134182271219e-14   4.1559304813256455e-14   4.2288380194617751e-14   4.1289338552177030e-14   4.2023857702905946e-14   4.0966840062343036e-14   4.1704587309036022e-14   4.0593431121133550e-14   4.1332439778812428e-14   4.0170696617814961e-14   4.0909199231829103e-14   3.9700216641245494e-14   4.0436608108811549e-14   3.9183589291055445e-14   3.9916399327073691e-14   3.8622446832407856e-14   3.9350319289045543e-14   3.8018466919594453e-14   3.8740144212557202e-14   3.7373380387444729e-14   3.8087691628843775e-14   3.6688976080112303e-14   3.7394828122491476e-14   3.5967103840558212e-14   3.6663474414888675e-14   3.5209675705695728e-14   3.5895608208770094e-14   3.4418665826236927e-14   3.5093265420345333e-14   3.3596109455165248e-14   3.4258540043169064e-14   3.2744101073849833e-14   3.3393583026941685e-14   3.1864791695820206e-14   3.2500600237928066e-14   3.0960385867127969e-14   3.1581849793517587e-14   3.0033137944880044e-14   3.0639638665194720e-14   2.9085348106909646e-14   2.9676319035777801e-14   2.8119357980153869e-14   2.8694284070277132e-14   2.7137546114526077e-14   2.7695963413658179e-14   2.6142322914163595e-14   2.6683818434414379e-14   2.5136125782078520e-14   2.5660337186666345e-14   2.4121413713483798e-14   2.4628029175742868e-14   2.3100662010237472e-14   2.3589420070900872e-14   2.2076356708458613e-14   2.2547046091624324e-14   2.1050989125109317e-14   2.1503448456971639e-14   2.0027050076855479e-14   2.0461167753686099e-14   1.9007024299636835e-14   1.9422738070214165e-14   1.7993384679423110e-14   1.8390681374721632e-14   1.6988586632185684e-14   1.7367501658275210e-14   1.5995062237000571e-14   1.6355679143586503e-14   1.5015214779332335e-14   1.5357664681368839e-14   1.4051413013208586e-14   1.4375873906441607e-14   1.3105985642087604e-14   1.3412681655665548e-14   1.2181215851302828e-14   1.2470416507629593e-14   1.1279335951625413e-14   1.1551355184614940e-14   1.0402522133733086e-14   1.0657717344368871e-14   9.5528892890724130e-15   9.7916602473237052e-15   8.7324860700543998e-15   8.9552737715503619e-15   7.9432900178163996e-15   8.1505754308928715e-15   7.1872028954521309e-15   7.3795056553747964e-15   6.4660462092589521e-15   6.6439231719265635e-15   5.7815568501507913e-15   5.9456006363560141e-15   5.1353830694952865e-15   5.2862204556724148e-15   4.5290804568401385e-15   4.6673708015630946e-15   3.9641083903380489e-15   4.0905418516363910e-15   3.4418264920107560e-15   3.5571222892249640e-15   2.9634914779408988e-15   3.0683960030888652e-15   2.5302541677840125e-15   2.6255390868481929e-15   2.1431567715970798e-15   2.2296170568918283e-15   1.8031304506105205e-15   1.8815823434415971e-15   1.5109931534781096e-15   1.5822720558675385e-15   1.2674476698447553e-15   1.3324060431202141e-15   1.0730800485110762e-15   1.1325852001147177e-15   9.2835820964455317e-16   9.8329008650923393e-16   8.3363092055961993e-16   8.8487983653625013e-16   7.8912699836012868e-16   8.3759133816403355e-16   7.9495485042760861e-16   8.4153872709190716e-16   8.5110227878320596e-16   8.9671317846310919e-16   9.5743659493749151e-16   1.0029829881006228e-15   1.1137050258425131e-15   1.1600939444402152e-15   1.3195354104946795e-15   1.3676700122616889e-15   1.5744371960275563e-15   1.6252142977033603e-15   1.8778027241017889e-15   1.9321103218404698e-15   2.2289088070572774e-15   2.2876235622226811e-15   2.6269185967846155e-15   2.6909033035425974e-15   3.0708837360692813e-15   3.1409847542256971e-15   3.5597467965914639e-15   3.6367914464554147e-15   4.0923439839027771e-15   4.1771379089723180e-15   4.6674081454799826e-15   4.7607325980372784e-15   5.2835720275060774e-15   5.3861810986698000e-15   5.9393718024636858e-15   6.0519895458773317e-15   6.6332508866048792e-15   6.7565683328952398e-15   7.3635639892041799e-15   7.4982360088973950e-15   8.1285814736733440e-15   8.2752234074588713e-15   8.9264939318720124e-15   9.0856779993070939e-15   9.7554170798583924e-15   9.9276684068075810e-15   1.0613396882702889e-14   1.0799189132757920e-14   1.1498415035685082e-14   1.1698165432773844e-14   1.2408394692345327e-14   1.2622458312514677e-14   1.3341206599503045e-14   1.3569869691494395e-14   1.4294675577205819e-14   1.4538147591527065e-14   1.5266587492230575e-14   1.5524991405119556e-14   1.6254696754542010e-14   1.6528057195873440e-14   1.7256734559799183e-14   1.7544962874465935e-14   1.8270418006452571e-14   1.8573293306696082e-14   1.9293460380336112e-14   1.9610605073950036e-14   2.0323583199720312e-14   2.0654430898512322e-14   2.1358530448756832e-14   2.1702283336634815e-14   2.2396086265530450e-14   2.2751657560608659e-14   2.3434097521394865e-14   2.3800032560621361e-14   2.4470503877738884e-14   2.4844870228267520e-14   2.5503379513006107e-14   2.5883611108705303e-14   2.6530993398697779e-14   2.6913665255759054e-14   2.7551900117786439e-14   2.7932395976279935e-14   2.8565082847400973e-14   2.8937093102999568e-14   2.9570188397501474e-14   2.9924931982468458e-14   3.0567932112576922e-14   3.0892914865117553e-14   3.1560831196887775e-14   3.1837798814949967e-14   3.2554604533502082e-14   3.2756044969743243e-14   3.3560993266480857e-14   3.3643938646495941e-14   3.4603720533163165e-14   3.4498447505346341e-14   3.5731355521696977e-14   3.5320955352552534e-14   3.7043287073502450e-14   3.6132222658893001e-14   3.8721151598868596e-14   3.7032678039683400e-14   4.0891812714616584e-14   3.8447648491645887e-14   4.2226487459846783e-14   4.2025725702709745e-14   4.6680571651067549e-14   5.1339451655871727e-14   2.3919833252478080e-12   1.0174877659799388e-13   6.4179424866263218e-14   3.8394821667468443e-14   4.5519319344491544e-14   4.5519319344944439e-14   4.1239891770365055e-14   4.6838227074068375e-14   4.0693914456506318e-14   4.4081309861674159e-14   4.0917831864227152e-14   4.2365582361931776e-14   4.1359455402945156e-14   4.1932000489215578e-14   4.1807726367427207e-14   4.2018681916867942e-14   4.2198793401256544e-14   4.2266037391267158e-14   4.2516721656369414e-14   4.2534090683682830e-14   4.2760019351233353e-14   4.2769223074355332e-14   4.2931183070605873e-14   4.2951007975562141e-14   4.3033467382091338e-14   4.3072166222011120e-14   4.3069943220495216e-14   4.3130770398386371e-14   4.3043289966980977e-14   4.3127086220498875e-14   4.2955814823275029e-14   4.3062255884166750e-14   4.2809530889813315e-14   4.2937745118251897e-14   4.2606239321091988e-14   4.2755117030655167e-14   4.2347599632933340e-14   4.2515947669910970e-14   4.2035185540509486e-14   4.2221802927757645e-14   4.1670527941625170e-14   4.1874240745825914e-14   4.1255147326292644e-14   4.1474822487571861e-14   4.0790577914755425e-14   4.1025126511654069e-14   4.0278385446439440e-14   4.0526760856323364e-14   3.9720180149948782e-14   3.9981374006146579e-14   3.9117625965195526e-14   3.9390663277904612e-14   3.8472446699368864e-14   3.8756381204481309e-14   3.7786430061525706e-14   3.8080339984299020e-14   3.7061429921717770e-14   3.7364414206668423e-14   3.6299366971361529e-14   3.6610542268976336e-14   3.5502228440796588e-14   3.5820726568493628e-14   3.4672066652257522e-14   3.4997032683108712e-14   3.3810997007585485e-14   3.4141587788070717e-14   3.2921195161352170e-14   3.3256578321320111e-14   3.2004893786872242e-14   3.2344247000090495e-14   3.1064378771579635e-14   3.1406889463920188e-14   3.0101985131980262e-14   3.0446850361044526e-14   2.9120092508725249e-14   2.9466519075956200e-14   2.8121120452560052e-14   2.8468325265251945e-14   2.7107523353228287e-14   2.7454733934059255e-14   2.6081785380086928e-14   2.6428240449792132e-14   2.5046415061384997e-14   2.5391365253639702e-14   2.4003939678139992e-14   2.4346648454559412e-14   2.2956899860517260e-14   2.3296644328493423e-14   2.1907843698828770e-14   2.2243915585321205e-14   2.0859321029282935e-14   2.1191027737705561e-14   1.9813877670528124e-14   2.0140543200760550e-14   1.8774049435215140e-14   1.9095015539746069e-14   1.7742356395223722e-14   1.8056983615418073e-14   1.6721297028080930e-14   1.7028965721203519e-14   1.5713342268439481e-14   1.6013453704425998e-14   1.4720929941809324e-14   1.5012907367886272e-14   1.3746458904088054e-14   1.4029748505331243e-14   1.2792283440460478e-14   1.3066355369036687e-14   1.1860707764755214e-14   1.2125057117795709e-14   1.0953980581417146e-14   1.1208128325964902e-14   1.0074289761085011e-14   1.0317783605985564e-14   9.2237572075201396e-15   9.4561724619458275e-15   8.4044338210250546e-15   8.6253741316158601e-15   7.6182946433097268e-15   7.8273928186465709e-15   6.8672342497849338e-15   7.0641528291980335e-15   6.1530621515954462e-15   6.3374940874411415e-15   5.4774986322232150e-15   5.6491678177056610e-15   4.8421706088577762e-15   5.0008323361115184e-15   4.2486078043300297e-15   4.3940491895102056e-15   3.6982391328691984e-15   3.8302794216387525e-15   3.1923892872184125e-15   3.3108801546959401e-15   2.7322757070574536e-15   2.8371014029386020e-15   2.3190056087143206e-15   2.4100830196605210e-15   1.9535734070799896e-15   2.0308521492470854e-15   1.6368584532472018e-15   1.7003207155274658e-15   1.3696228710756906e-15   1.4192833147866065e-15   1.1525098579021819e-15   1.1884153500636512e-15   9.8604218682666950e-16   1.0082714594619569e-15   8.7062099728099984e-16   8.7928422384146388e-16   8.0652490741367006e-16   8.0176316353484416e-16   7.9390940796539266e-16   7.7589406881669851e-16   8.3280656359983564e-16   8.0173856586943767e-16   9.2312499904364636e-16   8.7923403505994027e-16   1.0646502136658078e-15   1.0081937912133156e-15   1.2570451617687806e-15   1.1883075730808937e-15   1.4998511630965030e-15   1.4191423364344996e-15   1.7924890869823722e-15   1.7001433212965397e-15   2.1342608553778872e-15   2.0306354206076456e-15   2.5243512170354626e-15   2.4098248362254742e-15   2.9618298249899206e-15   2.8368010036080984e-15   3.4456535865926692e-15   3.3105387987129298e-15   3.9746693329770613e-15   3.8299010190794530e-15   4.5476166908940533e-15   4.3936410930114764e-15   5.1631313090736703e-15   5.0004060751358729e-15   5.8197482836579333e-15   5.6487398666544989e-15   6.5159058894133010e-15   6.3370866295843748e-15   7.2499495200889570e-15   7.0637944544443867e-15   8.0201359063652659e-15   7.8271192082398251e-15   8.8246375544146394e-15   8.6252285291067296e-15   9.6615474396830521e-15   9.4562060011636911e-15   1.0528883897895004e-14   1.0318055411898706e-14   1.1424595724499391e-14   1.1208705133258710e-14   1.2346567524163529e-14   1.2126012516423487e-14   1.3292625244351605e-14   1.3067768256422843e-14   1.4260541872886097e-14   1.4031700671028938e-14   1.5248043406577245e-14   1.5015479848428485e-14   1.6252814874241355e-14   1.6016721398353074e-14   1.7272506672584567e-14   1.7032989785716117e-14   1.8304740896727130e-14   1.8061800969907883e-14   1.9347117902075808e-14   1.9100623956122963e-14   2.0397222859761213e-14   2.0146880991530983e-14   2.1452632294999577e-14   2.1197945560273177e-14   2.2510920391242917e-14   2.2251137407873024e-14   2.3569664720121259e-14   2.3303713231784906e-14   2.4626450982435677e-14   2.4352850988367731e-14   2.5678875401214509e-14   2.5395624790450734e-14   2.6724542985928215e-14   2.6428965888723089e-14   2.7761057594536537e-14   2.7449602443671029e-14   2.8785996087338462e-14   2.8453966874422930e-14   2.9796850513632689e-14   2.9438052831903752e-14   3.0790904026671736e-14   3.0397192864510232e-14   3.1764963657499331e-14   3.1325709876000721e-14   3.2714766808258535e-14   3.2216366591119110e-14   3.3633598062083928e-14   3.3059492097801489e-14   3.4508861835708678e-14   3.3841599401446676e-14   3.5312999965706240e-14   3.4543220219647709e-14   3.5977924734374784e-14   3.5135509275095043e-14   3.6321054579169165e-14   3.5574117500638851e-14   3.5847884510546962e-14   3.5780549967321357e-14   3.3487409392359084e-14   3.5549700797510621e-14   3.0174052823593891e-14   3.4184773160118163e-14   5.3710501366292223e-14   3.1839683390118249e-14   4.7253658126966486e-14   5.2101092541680326e-14   3.9383657517205599e-14   3.5716881682833933e-14   4.6838227074818241e-14   4.1239891770730948e-14   4.4110527742333662e-14   4.4110527742432112e-14   4.2921348954395546e-14   4.4940925493970524e-14   4.2574035425450213e-14   4.4380734356861359e-14   4.2588466601754322e-14   4.3788204294828361e-14   4.2748131526290645e-14   4.3491497945407564e-14   4.2946916891617797e-14   4.3411794745847217e-14   4.3133032664476105e-14   4.3438706099401682e-14   4.3281784775210917e-14   4.3499839189086685e-14   4.3381629057325289e-14   4.3554085937012578e-14   4.3427379230973458e-14   4.3578966434077913e-14   4.3416958997791465e-14   4.3562339137661732e-14   4.3349842932947602e-14   4.3497752596934882e-14   4.3226299225546560e-14   4.3381926873416843e-14   4.3047017914451548e-14   4.3213389074209693e-14   4.2812927404712856e-14   4.2991725665367987e-14   4.2525104484674494e-14   4.2717166890032284e-14   4.2184731115445284e-14   4.2390352350552131e-14   4.1793074769929449e-14   4.2012196999493795e-14   4.1351480350553139e-14   4.1583813445924231e-14   4.0861367698564707e-14   4.1106466435061428e-14   4.0324231381504286e-14   4.0581545700385202e-14   3.9741641374660100e-14   4.0010549436391971e-14   3.9115243663244057e-14   3.9395073857542189e-14   3.8446760339762909e-14   3.8736806217430773e-14   3.7737989326470958e-14   3.8037519733619260e-14   3.6990803269002032e-14   3.7299069432848370e-14   3.6207147955978432e-14   3.6523388588100078e-14   3.5389040173151792e-14   3.5712485072455272e-14   3.4538564825999092e-14   3.4868437788013654e-14   3.3657871994014941e-14   3.3993392957440787e-14   3.2749173168272806e-14   3.3089560045245469e-14   3.1814737359403234e-14   3.2159207636990271e-14   3.0856886717513756e-14   3.1204658944221503e-14   2.9877992147245132e-14   3.0228287145478434e-14   2.8880468225656543e-14   2.9232510493915192e-14   2.7866768341404741e-14   2.8219787242576078e-14   2.6839379309692715e-14   2.7192610389840969e-14   2.5800816069524450e-14   2.6153502278400128e-14   2.4753616104568080e-14   2.5105008989972189e-14   2.3700333691575306e-14   2.4049694781741417e-14   2.2643534240110888e-14   2.2990136246174997e-14   2.1585788492183869e-14   2.1928916541401699e-14   2.0529666494494753e-14   2.0868619438695968e-14   1.9477731830922941e-14   1.9811823505827946e-14   1.8432535568905225e-14   1.8761096054480254e-14   1.7396610474662080e-14   1.7718987338678076e-14   1.6372465011716877e-14   1.6688024484629527e-14   1.5362577523414613e-14   1.5670705725984296e-14   1.4369390362176810e-14   1.4669494480554189e-14   1.3395304265838375e-14   1.3686813717015964e-14   1.2442672611286020e-14   1.2725040106215995e-14   1.1513795983116153e-14   1.1786498581987441e-14   1.0610916585542903e-14   1.0873456754017406e-14   9.7362131236718303e-15   9.9881196692157740e-15   8.8917955290406338e-15   9.1326245385151165e-15   8.0797000448335092e-15   8.3090357377476678e-15   7.3018843375856812e-15   7.5193398778904957e-15   6.5602229727184622e-15   6.7654412044184386e-15   5.8565028482913571e-15   6.0491569585643864e-15   5.1924190749147181e-15   5.3722132064035658e-15   4.5695708750995650e-15   4.7362406938177141e-15   3.9894578850755196e-15   4.1427709812608450e-15   3.4534765073661142e-15   3.5932328319375186e-15   2.9629166942345267e-15   3.0889488703166705e-15   2.5189588836757163e-15   2.6311323794607715e-15   2.1226711958131227e-15   2.2208845081885201e-15   1.7750068963280183e-15   1.8591916235670411e-15   1.4768022246461636e-15   1.5469230017487971e-15   1.2287743728684468e-15   1.2848287881536577e-15   1.0315198609404337e-15   1.0735382337786232e-15   8.8551310766591155e-16   9.1355819609327851e-16   7.9110539268486116e-16   8.0527200483947588e-16   7.4852402058196897e-16   7.4893852378888775e-16   7.5787186836039943e-16   7.4469160188379352e-16   8.1912715129015556e-16   7.9253975518727686e-16   9.3214357045998356e-16   8.9236617798609731e-16   1.0966506826636238e-15   1.0439290439656449e-15   1.3122546314451785e-15   1.2468621054740026e-15   1.5784391387041940e-15   1.5006755810007422e-15   1.8945668000705886e-15   1.8047573294901216e-15   2.2598806748633786e-15   2.1583743205395138e-15   2.6735061550165079e-15   2.5606743731856060e-15   3.1344531236730390e-15   3.0106881769638680e-15   3.6416183752341297e-15   3.5073315599602050e-15   4.1937883186842488e-15   4.0494080381536443e-15   4.7896419169515187e-15   4.6356115823028918e-15   5.4277539024032986e-15   5.2645296345167403e-15   6.1065982068758116e-15   5.9346463255174503e-15   6.8245516294240469e-15   6.6443459043618280e-15   7.5798976991766110e-15   7.3919163256418286e-15   8.3708307535060783e-15   8.1755530179802514e-15   9.1954601511257563e-15   8.9933627205930595e-15   1.0051814684771328e-14   9.8433674709838106e-15   1.0937847010620948e-14   1.0723508557806012e-14   1.1851438288791111e-14   1.1631650533975822e-14   1.2790402693058030e-14   1.2565585037041249e-14   1.3752492026242208e-14   1.3523034567713449e-14   1.4735400072767083e-14   1.4501655775944621e-14   1.5736766810458837e-14   1.5499042494005287e-14   1.6754182113502628e-14   1.6512727922387199e-14   1.7785188905615816e-14   1.7540186007231123e-14   1.8827285232383573e-14   1.8578831348135289e-14   1.9877924988765498e-14   1.9626017347508266e-14   2.0934516319460779e-14   2.0679031694661940e-14   2.1994416885045276e-14   2.1735088142681393e-14   2.3054924063787716e-14   2.2791313167956445e-14   2.4113257602929947e-14   2.3844725175884321e-14   2.5166530441385134e-14   2.4892203071649377e-14   2.6211700736758901e-14   2.5930439377465443e-14   2.7245493436504287e-14   2.6955870544378063e-14   2.8264271294663434e-14   2.7964573306486041e-14   2.9263819710056143e-14   2.8952109768089583e-14   3.0238980122671790e-14   2.9913293826132572e-14   3.1183008989249328e-14   3.0841835532086708e-14   3.2086421906103956e-14   3.1729792882413504e-14   3.2934838500009392e-14   3.2566715299364420e-14   3.3704827244740707e-14   3.3338284156802557e-14   3.4355674553475383e-14   3.4024111599516379e-14   3.4812980229436343e-14   3.4594072310219847e-14   3.4937609930655897e-14   3.5001935955554158e-14   3.4479688493293929e-14   3.5174046026974550e-14   3.3082910034519041e-14   3.4993166973146180e-14   3.0696598553493720e-14   3.4324379327479941e-14   2.9030047857107169e-14   3.3461427781624033e-14   3.0881513284961956e-14   3.5190426500306181e-14   4.3900554978810554e-14   4.4107695557917804e-14   3.7800253231708572e-14   3.7164004569677583e-14   4.4081309859837477e-14   4.0693914455334020e-14   4.4940925494189247e-14   4.2921348953930244e-14   4.4337737329374293e-14   4.4337737329197260e-14   4.3899250388279354e-14   4.4768305757998739e-14   4.3706352201023068e-14   4.4671405723837619e-14   4.3666708379333754e-14   4.4466788747122038e-14   4.3702162041461691e-14   4.4310491589727216e-14   4.3760727287093093e-14   4.4217076409477687e-14   4.3810330815100630e-14   4.4160513625576101e-14   4.3831871822586418e-14   4.4112511584844559e-14   4.3814194934309098e-14   4.4051608633574128e-14   4.3750900474656816e-14   4.3963257676402955e-14   4.3638431930273212e-14   4.3838078891130712e-14   4.34749543