<?xml version="1.0"?>
<VTKFile type="UnstructuredGrid"  version="0.1"  >
<UnstructuredGrid>
<Piece  NumberOfPoints="16641" NumberOfCells="32768">
<Points>
<DataArray  type="Float64"  NumberOfComponents="3"  format="ascii">0 0 0  0.0078125 0 0  0.015625 0 0  0.0234375 0 0  0.03125 0 0  0.0390625 0 0  0.046875 0 0  0.0546875 0 0  0.0625 0 0  0.0703125 0 0  0.078125 0 0  0.0859375 0 0  0.09375 0 0  0.1015625 0 0  0.109375 0 0  0.1171875 0 0  0.125 0 0  0.1328125 0 0  0.140625 0 0  0.1484375 0 0  0.15625 0 0  0.1640625 0 0  0.171875 0 0  0.1796875 0 0  0.1875 0 0  0.1953125 0 0  0.203125 0 0  0.2109375 0 0  0.21875 0 0  0.2265625 0 0  0.234375 0 0  0.2421875 0 0  0.25 0 0  0.2578125 0 0  0.265625 0 0  0.2734375 0 0  0.28125 0 0  0.2890625 0 0  0.296875 0 0  0.3046875 0 0  0.3125 0 0  0.3203125 0 0  0.328125 0 0  0.3359375 0 0  0.34375 0 0  0.3515625 0 0  0.359375 0 0  0.3671875 0 0  0.375 0 0  0.3828125 0 0  0.390625 0 0  0.3984375 0 0  0.40625 0 0  0.4140625 0 0  0.421875 0 0  0.4296875 0 0  0.4375 0 0  0.4453125 0 0  0.453125 0 0  0.4609375 0 0  0.46875 0 0  0.4765625 0 0  0.484375 0 0  0.4921875 0 0  0.5 0 0  0.5078125 0 0  0.515625 0 0  0.5234375 0 0  0.53125 0 0  0.5390625 0 0  0.546875 0 0  0.5546875 0 0  0.5625 0 0  0.5703125 0 0  0.578125 0 0  0.5859375 0 0  0.59375 0 0  0.6015625 0 0  0.609375 0 0  0.6171875 0 0  0.625 0 0  0.6328125 0 0  0.640625 0 0  0.6484375 0 0  0.65625 0 0  0.6640625 0 0  0.671875 0 0  0.6796875 0 0  0.6875 0 0  0.6953125 0 0  0.703125 0 0  0.7109375 0 0  0.71875 0 0  0.7265625 0 0  0.734375 0 0  0.7421875 0 0  0.75 0 0  0.7578125 0 0  0.765625 0 0  0.7734375 0 0  0.78125 0 0  0.7890625 0 0  0.796875 0 0  0.8046875 0 0  0.8125 0 0  0.8203125 0 0  0.828125 0 0  0.8359375 0 0  0.84375 0 0  0.8515625 0 0  0.859375 0 0  0.8671875 0 0  0.875 0 0  0.8828125 0 0  0.890625 0 0  0.8984375 0 0  0.90625 0 0  0.9140625 0 0  0.921875 0 0  0.9296875 0 0  0.9375 0 0  0.9453125 0 0  0.953125 0 0  0.9609375 0 0  0.96875 0 0  0.9765625 0 0  0.984375 0 0  0.9921875 0 0  1 0 0  0 0.0078125 0  0.0078125 0.0078125 0  0.015625 0.0078125 0  0.0234375 0.0078125 0  0.03125 0.0078125 0  0.0390625 0.0078125 0  0.046875 0.0078125 0  0.0546875 0.0078125 0  0.0625 0.0078125 0  0.0703125 0.0078125 0  0.078125 0.0078125 0  0.0859375 0.0078125 0  0.09375 0.0078125 0  0.1015625 0.0078125 0  0.109375 0.0078125 0  0.1171875 0.0078125 0  0.125 0.0078125 0  0.1328125 0.0078125 0  0.140625 0.0078125 0  0.1484375 0.0078125 0  0.15625 0.0078125 0  0.1640625 0.0078125 0  0.171875 0.0078125 0  0.1796875 0.0078125 0  0.1875 0.0078125 0  0.1953125 0.0078125 0  0.203125 0.0078125 0  0.2109375 0.0078125 0  0.21875 0.0078125 0  0.2265625 0.0078125 0  0.234375 0.0078125 0  0.2421875 0.0078125 0  0.25 0.0078125 0  0.2578125 0.0078125 0  0.265625 0.0078125 0  0.2734375 0.0078125 0  0.28125 0.0078125 0  0.2890625 0.0078125 0  0.296875 0.0078125 0  0.3046875 0.0078125 0  0.3125 0.0078125 0  0.3203125 0.0078125 0  0.328125 0.0078125 0  0.3359375 0.0078125 0  0.34375 0.0078125 0  0.3515625 0.0078125 0  0.359375 0.0078125 0  0.3671875 0.0078125 0  0.375 0.0078125 0  0.3828125 0.0078125 0  0.390625 0.0078125 0  0.3984375 0.0078125 0  0.40625 0.0078125 0  0.4140625 0.0078125 0  0.421875 0.0078125 0  0.4296875 0.0078125 0  0.4375 0.0078125 0  0.4453125 0.0078125 0  0.453125 0.0078125 0  0.4609375 0.0078125 0  0.46875 0.0078125 0  0.4765625 0.0078125 0  0.484375 0.0078125 0  0.4921875 0.0078125 0  0.5 0.0078125 0  0.5078125 0.0078125 0  0.515625 0.0078125 0  0.5234375 0.0078125 0  0.53125 0.0078125 0  0.5390625 0.0078125 0  0.546875 0.0078125 0  0.5546875 0.0078125 0  0.5625 0.0078125 0  0.5703125 0.0078125 0  0.578125 0.0078125 0  0.5859375 0.0078125 0  0.59375 0.0078125 0  0.6015625 0.0078125 0  0.609375 0.0078125 0  0.6171875 0.0078125 0  0.625 0.0078125 0  0.6328125 0.0078125 0  0.640625 0.0078125 0  0.6484375 0.0078125 0  0.65625 0.0078125 0  0.6640625 0.0078125 0  0.671875 0.0078125 0  0.6796875 0.0078125 0  0.6875 0.0078125 0  0.6953125 0.0078125 0  0.703125 0.0078125 0  0.7109375 0.0078125 0  0.71875 0.0078125 0  0.7265625 0.0078125 0  0.734375 0.0078125 0  0.7421875 0.0078125 0  0.75 0.0078125 0  0.7578125 0.0078125 0  0.765625 0.0078125 0  0.7734375 0.0078125 0  0.78125 0.0078125 0  0.7890625 0.0078125 0  0.796875 0.0078125 0  0.8046875 0.0078125 0  0.8125 0.0078125 0  0.8203125 0.0078125 0  0.828125 0.0078125 0  0.8359375 0.0078125 0  0.84375 0.0078125 0  0.8515625 0.0078125 0  0.859375 0.0078125 0  0.8671875 0.0078125 0  0.875 0.0078125 0  0.8828125 0.0078125 0  0.890625 0.0078125 0  0.8984375 0.0078125 0  0.90625 0.0078125 0  0.9140625 0.0078125 0  0.921875 0.0078125 0  0.9296875 0.0078125 0  0.9375 0.0078125 0  0.9453125 0.0078125 0  0.953125 0.0078125 0  0.9609375 0.0078125 0  0.96875 0.0078125 0  0.9765625 0.0078125 0  0.984375 0.0078125 0  0.9921875 0.0078125 0  1 0.0078125 0  0 0.015625 0  0.0078125 0.015625 0  0.015625 0.015625 0  0.0234375 0.015625 0  0.03125 0.015625 0  0.0390625 0.015625 0  0.046875 0.015625 0  0.0546875 0.015625 0  0.0625 0.015625 0  0.0703125 0.015625 0  0.078125 0.015625 0  0.0859375 0.015625 0  0.09375 0.015625 0  0.1015625 0.015625 0  0.109375 0.015625 0  0.1171875 0.015625 0  0.125 0.015625 0  0.1328125 0.015625 0  0.140625 0.015625 0  0.1484375 0.015625 0  0.15625 0.015625 0  0.1640625 0.015625 0  0.171875 0.015625 0  0.1796875 0.015625 0  0.1875 0.015625 0  0.1953125 0.015625 0  0.203125 0.015625 0  0.2109375 0.015625 0  0.21875 0.015625 0  0.2265625 0.015625 0  0.234375 0.015625 0  0.2421875 0.015625 0  0.25 0.015625 0  0.2578125 0.015625 0  0.265625 0.015625 0  0.2734375 0.015625 0  0.28125 0.015625 0  0.2890625 0.015625 0  0.296875 0.015625 0  0.3046875 0.015625 0  0.3125 0.015625 0  0.3203125 0.015625 0  0.328125 0.015625 0  0.3359375 0.015625 0  0.34375 0.015625 0  0.3515625 0.015625 0  0.359375 0.015625 0  0.3671875 0.015625 0  0.375 0.015625 0  0.3828125 0.015625 0  0.390625 0.015625 0  0.3984375 0.015625 0  0.40625 0.015625 0  0.4140625 0.015625 0  0.421875 0.015625 0  0.4296875 0.015625 0  0.4375 0.015625 0  0.4453125 0.015625 0  0.453125 0.015625 0  0.4609375 0.015625 0  0.46875 0.015625 0  0.4765625 0.015625 0  0.484375 0.015625 0  0.4921875 0.015625 0  0.5 0.015625 0  0.5078125 0.015625 0  0.515625 0.015625 0  0.5234375 0.015625 0  0.53125 0.015625 0  0.5390625 0.015625 0  0.546875 0.015625 0  0.5546875 0.015625 0  0.5625 0.015625 0  0.5703125 0.015625 0  0.578125 0.015625 0  0.5859375 0.015625 0  0.59375 0.015625 0  0.6015625 0.015625 0  0.609375 0.015625 0  0.6171875 0.015625 0  0.625 0.015625 0  0.6328125 0.015625 0  0.640625 0.015625 0  0.6484375 0.015625 0  0.65625 0.015625 0  0.6640625 0.015625 0  0.671875 0.015625 0  0.6796875 0.015625 0  0.6875 0.015625 0  0.6953125 0.015625 0  0.703125 0.015625 0  0.7109375 0.015625 0  0.71875 0.015625 0  0.7265625 0.015625 0  0.734375 0.015625 0  0.7421875 0.015625 0  0.75 0.015625 0  0.7578125 0.015625 0  0.765625 0.015625 0  0.7734375 0.015625 0  0.78125 0.015625 0  0.7890625 0.015625 0  0.796875 0.015625 0  0.8046875 0.015625 0  0.8125 0.015625 0  0.8203125 0.015625 0  0.828125 0.015625 0  0.8359375 0.015625 0  0.84375 0.015625 0  0.8515625 0.015625 0  0.859375 0.015625 0  0.8671875 0.015625 0  0.875 0.015625 0  0.8828125 0.015625 0  0.890625 0.015625 0  0.8984375 0.015625 0  0.90625 0.015625 0  0.9140625 0.015625 0  0.921875 0.015625 0  0.9296875 0.015625 0  0.9375 0.015625 0  0.9453125 0.015625 0  0.953125 0.015625 0  0.9609375 0.015625 0  0.96875 0.015625 0  0.9765625 0.015625 0  0.984375 0.015625 0  0.9921875 0.015625 0  1 0.015625 0  0 0.0234375 0  0.0078125 0.0234375 0  0.015625 0.0234375 0  0.0234375 0.0234375 0  0.03125 0.0234375 0  0.0390625 0.0234375 0  0.046875 0.0234375 0  0.0546875 0.0234375 0  0.0625 0.0234375 0  0.0703125 0.0234375 0  0.078125 0.0234375 0  0.0859375 0.0234375 0  0.09375 0.0234375 0  0.1015625 0.0234375 0  0.109375 0.0234375 0  0.1171875 0.0234375 0  0.125 0.0234375 0  0.1328125 0.0234375 0  0.140625 0.0234375 0  0.1484375 0.0234375 0  0.15625 0.0234375 0  0.1640625 0.0234375 0  0.171875 0.0234375 0  0.1796875 0.0234375 0  0.1875 0.0234375 0  0.1953125 0.0234375 0  0.203125 0.0234375 0  0.2109375 0.0234375 0  0.21875 0.0234375 0  0.2265625 0.0234375 0  0.234375 0.0234375 0  0.2421875 0.0234375 0  0.25 0.0234375 0  0.2578125 0.0234375 0  0.265625 0.0234375 0  0.2734375 0.0234375 0  0.28125 0.0234375 0  0.2890625 0.0234375 0  0.296875 0.0234375 0  0.3046875 0.0234375 0  0.3125 0.0234375 0  0.3203125 0.0234375 0  0.328125 0.0234375 0  0.3359375 0.0234375 0  0.34375 0.0234375 0  0.3515625 0.0234375 0  0.359375 0.0234375 0  0.3671875 0.0234375 0  0.375 0.0234375 0  0.3828125 0.0234375 0  0.390625 0.0234375 0  0.3984375 0.0234375 0  0.40625 0.0234375 0  0.4140625 0.0234375 0  0.421875 0.0234375 0  0.4296875 0.0234375 0  0.4375 0.0234375 0  0.4453125 0.0234375 0  0.453125 0.0234375 0  0.4609375 0.0234375 0  0.46875 0.0234375 0  0.4765625 0.0234375 0  0.484375 0.0234375 0  0.4921875 0.0234375 0  0.5 0.0234375 0  0.5078125 0.0234375 0  0.515625 0.0234375 0  0.5234375 0.0234375 0  0.53125 0.0234375 0  0.5390625 0.0234375 0  0.546875 0.0234375 0  0.5546875 0.0234375 0  0.5625 0.0234375 0  0.5703125 0.0234375 0  0.578125 0.0234375 0  0.5859375 0.0234375 0  0.59375 0.0234375 0  0.6015625 0.0234375 0  0.609375 0.0234375 0  0.6171875 0.0234375 0  0.625 0.0234375 0  0.6328125 0.0234375 0  0.640625 0.0234375 0  0.6484375 0.0234375 0  0.65625 0.0234375 0  0.6640625 0.0234375 0  0.671875 0.0234375 0  0.6796875 0.0234375 0  0.6875 0.0234375 0  0.6953125 0.0234375 0  0.703125 0.0234375 0  0.7109375 0.0234375 0  0.71875 0.0234375 0  0.7265625 0.0234375 0  0.734375 0.0234375 0  0.7421875 0.0234375 0  0.75 0.0234375 0  0.7578125 0.0234375 0  0.765625 0.0234375 0  0.7734375 0.0234375 0  0.78125 0.0234375 0  0.7890625 0.0234375 0  0.796875 0.0234375 0  0.8046875 0.0234375 0  0.8125 0.0234375 0  0.8203125 0.0234375 0  0.828125 0.0234375 0  0.8359375 0.0234375 0  0.84375 0.0234375 0  0.8515625 0.0234375 0  0.859375 0.0234375 0  0.8671
[...]
<CellData  Scalars="f_97001"> 
<DataArray  type="Float64"  Name="f_97001"  format="ascii">2.1411920326869556e-12   2.1411920326829057e-12   3.7897093747309208e-12   4.9181072346125523e-12   5.8334050616632323e-12   7.8685220717811883e-12   8.2571205950831264e-12   1.1374989367681507e-11   1.1047231231094893e-11   1.5414190786925749e-11   1.4190709536052942e-11   1.9965591457682514e-11   1.7674624577541461e-11   2.5009510226183146e-11   2.1485967759516046e-11   3.0526488430223395e-11   2.5611571252471231e-11   3.6497030131550877e-11   3.0038056252657674e-11   4.2901461226253354e-11   3.4751796939462871e-11   4.9719840328182831e-11   3.9738896178979278e-11   5.6931900298347874e-11   4.4985170868339583e-11   6.4517011249405024e-11   5.0476145255103943e-11   7.2454159701548689e-11   5.6197050841612601e-11   8.0721940286162915e-11   6.2132831734502827e-11   8.9298557395160882e-11   6.8268154526893107e-11   9.8161834844795229e-11   7.4587421984115414e-11   1.0728923209489446e-10   8.1074789948974844e-11   1.1665786590054914e-10   8.7714186995117844e-11   1.2624453651615429e-10   9.4489336441831241e-11   1.3602575775375825e-10   1.0138378040775220e-10   1.4597779032445025e-10   1.0838090563061090e-10   1.5607667799141188e-10   1.1546397081553457e-10   1.6629828613510076e-10   1.2261613530593335e-10   1.7661834238628995e-10   1.2982048888967834e-10   1.8701247902303956e-10   1.3706008257350890e-10   1.9745627686659913e-10   1.4431796016709197e-10   2.0792531042111896e-10   1.5157719053570657e-10   2.1839519404100644e-10   1.5882090038205666e-10   2.2884162891197295e-10   1.6603230742936279e-10   2.3924045064454640e-10   1.7319475387983127e-10   2.4956767730062093e-10   1.8029174003379302e-10   2.5979955766610548e-10   1.8730695794875142e-10   2.6991261960973633e-10   1.9422432502955187e-10   2.7988371834096846e-10   2.0102801744630482e-10   2.8969008444175734e-10   2.0770250326585442e-10   2.9930937148186538e-10   2.1423257520426304e-10   3.0871970309406515e-10   2.2060338289359688e-10   3.1789971935229153e-10   2.2680046457536697e-10   3.2682862231874261e-10   2.3280977811775424e-10   3.3548622061934772e-10   2.3861773127359781e-10   3.4385297291751850e-10   2.4421121108950413e-10   3.5191003016332951e-10   2.4957761238104351e-10   3.5963927649286133e-10   2.5470486519275725e-10   3.6702336865794811e-10   2.5958146116712986e-10   3.7404577387791338e-10   2.6419647874488795e-10   3.8069080600622688e-10   2.6853960712834821e-10   3.8694365990224967e-10   2.7260116894031718e-10   3.9279044392296820e-10   2.7637214150972763e-10   3.9821821043074679e-10   2.7984417673282398e-10   4.0321498423733991e-10   2.8300961944671114e-10   4.0776978890567244e-10   2.8586152426615592e-10   4.1187267082736709e-10   2.8839367083562983e-10   4.1551472101541009e-10   2.9060057745065811e-10   4.1868809454031394e-10   2.9247751301825444e-10   4.2138602756971206e-10   2.9402050730576798e-10   4.2360285193876535e-10   2.9522635946346997e-10   4.2533400722762238e-10   2.9609264478468153e-10   4.2657605030097961e-10   2.9661771968922052e-10   4.2732666227581920e-10   2.9680072490610711e-10   4.2758465290624952e-10   2.9664158684915156e-10   4.2734996234997954e-10   2.9614101717760047e-10   4.2662366032465178e-10   2.9530051053745357e-10   4.2540794264180302e-10   2.9412234048340517e-10   4.2370612511893884e-10   2.9260955359183251e-10   4.2152263488554815e-10   2.9076596177551725e-10   4.1886299909600777e-10   2.8859613281326199e-10   4.1573383107887872e-10   2.8610537911601209e-10   4.1214281393894091e-10   2.8329974475543779e-10   4.0809868166503287e-10   2.8018599078101904e-10   4.0361119777263689e-10   2.7677157886434944e-10   3.9869113153850865e-10   2.7306465330091171e-10   3.9335023187602834e-10   2.6907402141614991e-10   3.8760119891685244e-10   2.6480913242274945e-10   3.8145765336237589e-10   2.6028005477301388e-10   3.7493410368065696e-10   2.5549745206325869e-10   3.6804591121946974e-10   2.5047255754814494e-10   3.6080925332512962e-10   2.4521714731979629e-10   3.5324108455086583e-10   2.3974351222326835e-10   3.4535909604978819e-10   2.3406442856594691e-10   3.3718167324596287e-10   2.2819312769566481e-10   3.2872785188411834e-10   2.2214326451834528e-10   3.2001727256651095e-10   2.1592888502688052e-10   3.1107013388330749e-10   2.0956439292099856e-10   3.0190714424332557e-10   2.0306451539463409e-10   2.9254947253041493e-10   1.9644426817008255e-10   2.8301869768822237e-10   1.8971891986057880e-10   2.7333675736451261e-10   1.8290395574528102e-10   2.6352589572939487e-10   1.7601504103672085e-10   2.5360861058951728e-10   1.6906798372827540e-10   2.4360759992830806e-10   1.6207869709931548e-10   2.3354570798419725e-10   1.5506316196714553e-10   2.2344587099880694e-10   1.4803738876490146e-10   2.1333106275777383e-10   1.4101737952806098e-10   2.0322424004256226e-10   1.3401908986802449e-10   1.9314828811491229e-10   1.2705839101085026e-10   1.8312596635216843e-10   1.2015103197448295e-10   1.7317985414872180e-10   1.1331260195553528e-10   1.6333229718839994e-10   1.0655849299199790e-10   1.5360535420318078e-10   9.9903862959631000e-11   1.4402074430645449e-10   9.3363598956068455e-11   1.3459979499920159e-10   8.6952281117677673e-11   1.2536339092692327e-10   8.0684146898578321e-11   1.1633192345952249e-10   7.4573055835302266e-11   1.0752524114900944e-10   6.8632454795015573e-11   9.8962601102030036e-11   6.2875343690558577e-11   9.0662621283505732e-11   5.7314241612145829e-11   8.2643233738900896e-11   5.1961153292911448e-11   7.4921638684331329e-11   4.6827535773385012e-11   6.7514259369545786e-11   4.1924265067262808e-11   6.0436697550460211e-11   3.7261602540322651e-11   5.3703689330848583e-11   3.2849160586479825e-11   4.7329061004918365e-11   2.8695867009489042e-11   4.1325684378294682e-11   2.4809927250469274e-11   3.5705430801570232e-11   2.1198783208032961e-11   3.0479122805222184e-11   1.7869066780559514e-11   2.5656481699586132e-11   1.4826545275790919e-11   2.1246068687908600e-11   1.2076054187431954e-11   1.7255215732206718e-11   9.6214099766613198e-12   1.3689940239969381e-11   7.4652902378439651e-12   1.0554833888893532e-11   5.6090583583058148e-12   7.8529091411988773e-12   4.0524881321044176e-12   5.5853741507004705e-12   2.7932935716070034e-12   3.7512808312818368e-12   1.8262374800311018e-12   2.3469343282691055e-12   1.1411894519042166e-12   1.3648168897963413e-12   7.1797691852389795e-13   7.9142524890885111e-13   4.1896715241749593e-13   6.0254861385904947e-13   4.9181072346181843e-12   3.7897093747215011e-12   7.5799177640410231e-12   7.5799177640259012e-12   1.0839495095485478e-11   1.0808609074571483e-11   1.4652899362705388e-11   1.4605655538634735e-11   1.8991674052772508e-11   1.8934712020358859e-11   2.3832453042967093e-11   2.3768865945543770e-11   2.9154028336220785e-11   2.9085127737400288e-11   3.4936091781910242e-11   3.4862281005811223e-11   4.1158625084467637e-11   4.1079829022296427e-11   4.7801587685011404e-11   4.7717467797515004e-11   5.4844748202972211e-11   5.4754814534881162e-11   6.2267589923916044e-11   6.2171262654273946e-11   7.0049257961155228e-11   6.9945903282303555e-11   7.8168532024899021e-11   7.8057484392624284e-11   8.6603816189433947e-11   8.6484393017202789e-11   9.5333140683912852e-11   9.5204652666917757e-11   1.0433417262852954e-10   1.0419593143207659e-10   1.1358423369055998e-10   1.1343555797925468e-10   1.2306032325806792e-10   1.2290054363446128e-10   1.3273914611875316e-10   1.3256760930825769e-10   1.4259714387667684e-10   1.4241321636728042e-10   1.5261052951173427e-10   1.5241360077624539e-10   1.6275532459940964e-10   1.6254480998245357e-10   1.7300739879335251e-10   1.7278274211738527e-10   1.8334251122820790e-10   1.8310318715250727e-10   1.9373635355076612e-10   1.9348186970603275e-10   2.0416459430988357e-10   2.0389449322838481e-10   2.1460292447112193e-10   2.1431678531834153e-10   2.2502710383476807e-10   2.2472454395551016e-10   2.3541300815002135e-10   2.3509368443364907e-10   2.4573667673763639e-10   2.4540028680500356e-10   2.5597436043404750e-10   2.5562064365691560e-10   2.6610256968665516e-10   2.6573130803357007e-10   2.7609812262445539e-10   2.7570914134929197e-10   2.8593819295797461e-10   2.8553136111946820e-10   2.9560035753259514e-10   2.9517558836377038e-10   3.0506264339989880e-10   3.0461989451827770e-10   3.1430357425753849e-10   3.1384284772638899e-10   3.2330221611136348e-10   3.2282355835619796e-10   3.3203822202664539e-10   3.3154172360547022e-10   3.4049187583456910e-10   3.3997767107230970e-10   3.4864413466917528e-10   3.4811240115577805e-10   3.5647667020579669e-10   3.5592762816420257e-10   3.6397190848562561e-10   3.6340582001609562e-10   3.7111306821073213e-10   3.7053023641228400e-10   3.7788419740454855e-10   3.7728496538032535e-10   3.8427020832572457e-10   3.8365495808096888e-10   3.9025691054543275e-10   3.8962606177551553e-10   3.9583104208602563e-10   3.9518505086716831e-10   4.0098029854270058e-10   4.0031965592901863e-10   4.0569336009448517e-10   4.0501859062158005e-10   4.0995991633623199e-10   4.0927157644601124e-10   4.1377068885826957e-10   4.1306936524396158e-10   4.1711745150868243e-10   4.1640375939081584e-10   4.1999304828293146e-10   4.1926762961724299e-10   4.2239140878071624e-10   4.2165493040912371e-10   4.2430756119349278e-10   4.2356071293975331e-10   4.2573764277868285e-10   4.2498113549830555e-10   4.2667890778744460e-10   4.2591347137878056e-10   4.2712973282513652e-10   4.2635611420132623e-10   4.2708961961238594e-10   4.2630858065163793e-10   4.2655919515195272e-10   4.2577151062042374e-10   4.2554020928290763e-10   4.2474666474500456e-10   4.2403552962176428e-10   4.2323691934066406e-10   4.2204913390635218e-10   4.2124625874118244e-10   4.1958609975061124e-10   4.1877976505945481e-10   4.1665259183472482e-10   4.1584360537982502e-10   4.1325584654734714e-10   4.1244501642689346e-10   4.0940415412987502e-10   4.0859228672096434e-10   4.0510683835188176e-10   4.0429473628909177e-10   4.0037423376200068e-10   3.9956269394267957e-10   3.9521766057442516e-10   3.9440747220916190e-10   3.8964939724426445e-10   3.8884133994862277e-10   3.8368265079732630e-10   3.8287749273675540e-10   3.7733152498124213e-10   3.7653002106961394e-10   3.7061098631898040e-10   3.6981387648222316e-10   3.6353682813659505e-10   3.6274483564120835e-10   3.5612563265819739e-10   3.5533946251340066e-10   3.4839473125590941e-10   3.4761506869356060e-10   3.4036216294692002e-10   3.3958967198435856e-10   3.3204663123666716e-10   3.3128195332759139e-10   3.2346745941307185e-10   3.2271121219059530e-10   3.1464454440231883e-10   3.1389732052252319e-10   3.0559830928290687e-10   3.0486067537143483e-10   2.9634965458529138e-10   2.9562215028943140e-10   2.8691990848098666e-10   2.8620304563904461e-10   2.7733077598823826e-10   2.7662503791553235e-10   2.6760428730719868e-10   2.6691012820705611e-10   2.5776274540653221e-10   2.5708058991192951e-10   2.4782867298985852e-10   2.4715891583898575e-10   2.3782475895555179e-10   2.3716776481230154e-10   2.2777380447660051e-10   2.2712990789877589e-10   2.1769866882962474e-10   2.1706817439311911e-10   2.0762221508366223e-10   2.0700539767423827e-10   1.9756725577585527e-10   1.9696436105303767e-10   1.8755649869132579e-10   1.8696774373903898e-10   1.7761249286107525e-10   1.7703806703547891e-10   1.6775757488753994e-10   1.6719764087796269e-10   1.5801381570723179e-10   1.5746851082336566e-10   1.4840296789120981e-10   1.4787240560294378e-10   1.3894641357228021e-10   1.3843068532074632e-10   1.2966511308744681e-10   1.2916429040046787e-10   1.2057955440872162e-10   1.2009369135314609e-10   1.1170970341977803e-10   1.1123883943874317e-10   1.0307495508354406e-10   1.0261911827093828e-10   9.4694085522763307e-11   9.4253296405889940e-11   8.6585205010867240e-11   8.6159480928593964e-11   7.8765711833410849e-11   7.8355072024366389e-11   7.1252246941756556e-11   7.0856718487836714e-11   6.4060649258245842e-11   6.3680274079318914e-11   5.7205911420893859e-11   5.6840754576362923e-11   5.0702135644559162e-11   5.0352295293685810e-11   4.4562489236549410e-11   4.4228108737198250e-11   3.8799159095289291e-11   3.8480441916377212e-11   3.3423304223350320e-11   3.3120532637731309e-11   2.8445004846359533e-11   2.8158563818106367e-11   2.3873206058119687e-11   2.3603614449787145e-11   1.9715652871036234e-11   1.9463605253568520e-11   1.5978811880985058e-11   1.5745236176799167e-11   1.2667772011333146e-11   1.2453911589476963e-11   9.7861121668114465e-12   9.5936471096749189e-12   7.3357155951704907e-12   7.1669492369392344e-12   5.3164965635773380e-12   5.1746554060018366e-12   3.7259796735675038e-12   3.6157190053513695e-12   2.5586288594634330e-12   2.4869292838043785e-12   1.8047705415087587e-12   1.7826138216376996e-12   1.4491782753292232e-12   1.4947551817431330e-12   1.1678525322183607e-12   1.6167758067642062e-12   7.8685220717682070e-12   5.8334050616251990e-12   1.0808609074567903e-11   1.0839495095432187e-11   1.4350082194662129e-11   1.4350082194631788e-11   1.8442906870770508e-11   1.8422450455783951e-11   2.3054297756416351e-11   2.3019237960349105e-11   2.8158192339546978e-11   2.8112045846043482e-11   3.3731588737846814e-11   3.3676450358750099e-11   3.9752947692755776e-11   3.9689981560311069e-11   4.6201386194146791e-11   4.6131144803761476e-11   5.3056233338050440e-11   5.2978868924921075e-11   6.0296777627227363e-11   6.0212179563324824e-11   6.7902121699034770e-11   6.7810005406724261e-11   7.5851099713445213e-11   7.5751064889160432e-11   8.4122232878197596e-11   8.4013802473712029e-11   9.2693709316690422e-11   9.2576356374764705e-11   1.0154338025259058e-10   1.0141654695774168e-10   1.1064876764884240e-10   1.1051187928624813e-10   1.1998708023818848e-10   1.1983955574381922e-10   1.2953523592638968e-10   1.2937649610012878e-10   1.3926988918775044e-10   1.3909936325831588e-10   1.4916746246375205e-10   1.4898459346299723e-10   1.5920418083090508e-10   1.5900843007972740e-10   1.6935610937625680e-10   1.6914696028885548e-10   1.7959919282333436e-10   1.7937615417409535e-10   1.8990929704060037e-10   1.8967190579114838e-10   2.0026225211581622e-10   2.0001007587446612e-10   2.1063389671245480e-10   2.1036653588016351e-10   2.2100012347694088e-10   2.2071721311203399e-10   2.3133692525742486e-10   2.3103813669365140e-10   2.4162044193413267e-10   2.4130548416892193e-10   2.5182700767613157e-10   2.5149562854763823e-10   2.6193319842484166e-10   2.6158518559280196e-10   2.7191587944996504e-10   2.7155106118642244e-10   2.8175225279206728e-10   2.8137049859886041e-10   2.9141990446045599e-10   2.9102112551131864e-10   3.0089685119394851e-10   3.0048100062021143e-10   3.1016158667614282e-10   3.0972865969092981e-10   3.1919312703471042e-10   3.1874316090754466e-10   3.2797105549852376e-10   3.2750412938914718e-10   3.3647556607039255e-10   3.3599180071745464e-10   3.4468750609626828e-10   3.4418706337642983e-10   3.5258841759719119e-10   3.5207149995421552e-10   3.6016057724906516e-10   3.5962742699765724e-10   3.6738703489009369e-10   3.6683793340600016e-10   3.7425165044871465e-10   3.7368691724101052e-10   3.8073912919015112e-10   3.8015912086927890e-10   3.8683505516992557e-10   3.8624016431408251e-10   3.9252592281359024e-10   3.9191657673709125e-10   3.9779916652088479e-10   3.9717582595152926e-10   4.0264318821219310e-10   4.0200634588663980e-10   4.0704738275042441e-10   4.0639756192493826e-10   4.1100216114925955e-10   4.1033991404348493e-10   4.1449897151245004e-10   4.1382487767861682e-10   4.1753031763763554e-10   4.1684498227329626e-10   4.2008977523846632e-10   4.1939382743913437e-10   4.2217200572016561e-10   4.2146609668558199e-10   4.2377276749156746e-10   4.2305756868517886e-10   4.2488892475775823e-10   4.2416512603002338e-10   4.2551845377128352e-10   4.2478676145163263e-10   4.2566044652939158e-10   4.2492158148947189e-10   4.2531511188115974e-10   4.2456980758178007e-10   4.2448377406086306e-10   4.2373277458201157e-10   4.2316886862557110e-10   4.2241292669158435e-10   4.2137393581152810e-10   4.2061381081204261e-10   4.1910361132037432e-10   4.1834006733566565e-10   4.1636361454321993e-10   4.1559741838298761e-10   4.1316073427008147e-10   4.1239265351998544e-10   4.0950281188117558e-10   4.0873361298309365e-10   4.0539872209523955e-10   4.0462916843991017e-10   4.0085835127984764e-10   4.0008920134581320e-10   3.9589257341210947e-10   3.9512457893318652e-10   3.9051322371140685e-10   3.8974712789515917e-10   3.8473307002769044e-10   3.8396960581699509e-10   3.7856578203881129e-10   3.7780567043154179e-10   3.7202589834648068e-10   3.7126984677469210e-10   3.6512879152023621e-10   3.6437749229191836e-10   3.5789063120576759e-10   3.5714476001823471e-10   3.5032834535919081e-10   3.4958855988745130e-10   3.4245957971303648e-10   3.4172651827476638e-10   3.3430265556518120e-10   3.3357693587535829e-10   3.2587652599106075e-10   3.2515874400209374e-10   3.1720073059375174e-10   3.1649145943058898e-10   3.0829534887896728e-10   3.0759513787408928e-10   2.9918095238660801e-10   2.9849032621924713e-10   2.8987855568426191e-10   2.8919801362708097e-10   2.8040956633378985e-10   2.7973958161604172e-10   2.7079573396043623e-10   2.7013675324897980e-10   2.6105909853406044e-10   2.6041154153972642e-10   2.5122193799264601e-10   2.5058619720790353e-10   2.4130671532428625e-10   2.4068315589731352e-10   2.3133602522837955e-10   2.3072498498238155e-10   2.2133254048964865e-10   2.2073433009394960e-10   2.1131895817646749e-10   2.1073386147531781e-10   2.0131794578585809e-10   2.0074622030085073e-10   1.9135208746125399e-10   1.9079396507026155e-10   1.8144383039257648e-10   1.8089951820339623e-10   1.7161543151614884e-10   1.7108511294737817e-10   1.6188890462097401e-10   1.6137274070775513e-10   1.5228596797520045e-10   1.5178409891758811e-10   1.4282799256063362e-10   1.4234053954378962e-10   1.3353595101490547e-10   1.3306301832480671e-10   1.2443036736097347e-10   1.2397204483586816e-10   1.1553126760053655e-10   1.1508763345818399e-10   1.0685813122582313e-10   1.0642925532341507e-10   9.8429843697361203e-11   9.8015791289270122e-11   9.0264649910794545e-11   8.9865485990166904e-11   8.2380108652329225e-11   8.1995902983217043e-11   7.4793048012724787e-11   7.4423880991325458e-11   6.7519521688467934e-11   6.7165491210112458e-11   6.0574766050351249e-11   6.0235995618067155e-11   5.3973157793001977e-11   5.3649806174566194e-11   4.7728171890186233e-11   4.7420444740421051e-11   4.1852339465652391e-11   4.1560503477164406e-11   3.6357205027750035e-11   3.6081605388907917e-11   3.1253282298075881e-11   3.0994364550271427e-11   2.6550007560239515e-11   2.6308345407080316e-11   2.2255689033253099e-11   2.2032020351881221e-11   1.8377450181764251e-11   1.8172724545938761e-11   1.4921164071767940e-11   1.4736606732537739e-11   1.1891374811068900e-11   1.1728574626695725e-11   9.2912008198268370e-12   9.1522336037337888e-12   7.1222134437830739e-12   7.0098184305533130e-12   5.3842843118764450e-12   5.3021212732650577e-12   4.0753997596976878e-12   4.0284300886386336e-12   3.1914684520286583e-12   3.1865275661479105e-12   2.7263029283795723e-12   2.7729363741064172e-12   2.6728827354871749e-12   2.7841588713301905e-12   2.3466745987503474e-12   3.2218747322423134e-12   1.1374989367610089e-11   8.2571205949924709e-12   1.4605655538591922e-11   1.4652899362602375e-11   1.8422450455780452e-11   1.8442906870699170e-11   2.2780028180965774e-11   2.2780028180927404e-11   2.7645586856187485e-11   2.7629538143859508e-11   3.2992353718014345e-11   3.2963186955488500e-11   3.8796493002525734e-11   3.8756168431766555e-11   4.5035667318402840e-11   4.4985461851958770e-11   5.1688290565036762e-11   5.1628978410397788e-11   5.8733098453558645e-11   5.8665082034294812e-11   6.6148887741233118e-11   6.6072297057061826e-11   7.3914355798714878e-11   7.3829123180349733e-11   8.2008003409076020e-11   8.1913918984108864e-11   9.0408078696176364e-11   9.0304831332550974e-11   9.90925485