<?xml version="1.0"?>
<VTKFile type="UnstructuredGrid"  version="0.1"  >
<UnstructuredGrid>
<Piece  NumberOfPoints="16641" NumberOfCells="32768">
<Points>
<DataArray  type="Float64"  NumberOfComponents="3"  format="ascii">0 0 0  0.0078125 0 0  0.015625 0 0  0.0234375 0 0  0.03125 0 0  0.0390625 0 0  0.046875 0 0  0.0546875 0 0  0.0625 0 0  0.0703125 0 0  0.078125 0 0  0.0859375 0 0  0.09375 0 0  0.1015625 0 0  0.109375 0 0  0.1171875 0 0  0.125 0 0  0.1328125 0 0  0.140625 0 0  0.1484375 0 0  0.15625 0 0  0.1640625 0 0  0.171875 0 0  0.1796875 0 0  0.1875 0 0  0.1953125 0 0  0.203125 0 0  0.2109375 0 0  0.21875 0 0  0.2265625 0 0  0.234375 0 0  0.2421875 0 0  0.25 0 0  0.2578125 0 0  0.265625 0 0  0.2734375 0 0  0.28125 0 0  0.2890625 0 0  0.296875 0 0  0.3046875 0 0  0.3125 0 0  0.3203125 0 0  0.328125 0 0  0.3359375 0 0  0.34375 0 0  0.3515625 0 0  0.359375 0 0  0.3671875 0 0  0.375 0 0  0.3828125 0 0  0.390625 0 0  0.3984375 0 0  0.40625 0 0  0.4140625 0 0  0.421875 0 0  0.4296875 0 0  0.4375 0 0  0.4453125 0 0  0.453125 0 0  0.4609375 0 0  0.46875 0 0  0.4765625 0 0  0.484375 0 0  0.4921875 0 0  0.5 0 0  0.5078125 0 0  0.515625 0 0  0.5234375 0 0  0.53125 0 0  0.5390625 0 0  0.546875 0 0  0.5546875 0 0  0.5625 0 0  0.5703125 0 0  0.578125 0 0  0.5859375 0 0  0.59375 0 0  0.6015625 0 0  0.609375 0 0  0.6171875 0 0  0.625 0 0  0.6328125 0 0  0.640625 0 0  0.6484375 0 0  0.65625 0 0  0.6640625 0 0  0.671875 0 0  0.6796875 0 0  0.6875 0 0  0.6953125 0 0  0.703125 0 0  0.7109375 0 0  0.71875 0 0  0.7265625 0 0  0.734375 0 0  0.7421875 0 0  0.75 0 0  0.7578125 0 0  0.765625 0 0  0.7734375 0 0  0.78125 0 0  0.7890625 0 0  0.796875 0 0  0.8046875 0 0  0.8125 0 0  0.8203125 0 0  0.828125 0 0  0.8359375 0 0  0.84375 0 0  0.8515625 0 0  0.859375 0 0  0.8671875 0 0  0.875 0 0  0.8828125 0 0  0.890625 0 0  0.8984375 0 0  0.90625 0 0  0.9140625 0 0  0.921875 0 0  0.9296875 0 0  0.9375 0 0  0.9453125 0 0  0.953125 0 0  0.9609375 0 0  0.96875 0 0  0.9765625 0 0  0.984375 0 0  0.9921875 0 0  1 0 0  0 0.0078125 0  0.0078125 0.0078125 0  0.015625 0.0078125 0  0.0234375 0.0078125 0  0.03125 0.0078125 0  0.0390625 0.0078125 0  0.046875 0.0078125 0  0.0546875 0.0078125 0  0.0625 0.0078125 0  0.0703125 0.0078125 0  0.078125 0.0078125 0  0.0859375 0.0078125 0  0.09375 0.0078125 0  0.1015625 0.0078125 0  0.109375 0.0078125 0  0.1171875 0.0078125 0  0.125 0.0078125 0  0.1328125 0.0078125 0  0.140625 0.0078125 0  0.1484375 0.0078125 0  0.15625 0.0078125 0  0.1640625 0.0078125 0  0.171875 0.0078125 0  0.1796875 0.0078125 0  0.1875 0.0078125 0  0.1953125 0.0078125 0  0.203125 0.0078125 0  0.2109375 0.0078125 0  0.21875 0.0078125 0  0.2265625 0.0078125 0  0.234375 0.0078125 0  0.2421875 0.0078125 0  0.25 0.0078125 0  0.2578125 0.0078125 0  0.265625 0.0078125 0  0.2734375 0.0078125 0  0.28125 0.0078125 0  0.2890625 0.0078125 0  0.296875 0.0078125 0  0.3046875 0.0078125 0  0.3125 0.0078125 0  0.3203125 0.0078125 0  0.328125 0.0078125 0  0.3359375 0.0078125 0  0.34375 0.0078125 0  0.3515625 0.0078125 0  0.359375 0.0078125 0  0.3671875 0.0078125 0  0.375 0.0078125 0  0.3828125 0.0078125 0  0.390625 0.0078125 0  0.3984375 0.0078125 0  0.40625 0.0078125 0  0.4140625 0.0078125 0  0.421875 0.0078125 0  0.4296875 0.0078125 0  0.4375 0.0078125 0  0.4453125 0.0078125 0  0.453125 0.0078125 0  0.4609375 0.0078125 0  0.46875 0.0078125 0  0.4765625 0.0078125 0  0.484375 0.0078125 0  0.4921875 0.0078125 0  0.5 0.0078125 0  0.5078125 0.0078125 0  0.515625 0.0078125 0  0.5234375 0.0078125 0  0.53125 0.0078125 0  0.5390625 0.0078125 0  0.546875 0.0078125 0  0.5546875 0.0078125 0  0.5625 0.0078125 0  0.5703125 0.0078125 0  0.578125 0.0078125 0  0.5859375 0.0078125 0  0.59375 0.0078125 0  0.6015625 0.0078125 0  0.609375 0.0078125 0  0.6171875 0.0078125 0  0.625 0.0078125 0  0.6328125 0.0078125 0  0.640625 0.0078125 0  0.6484375 0.0078125 0  0.65625 0.0078125 0  0.6640625 0.0078125 0  0.671875 0.0078125 0  0.6796875 0.0078125 0  0.6875 0.0078125 0  0.6953125 0.0078125 0  0.703125 0.0078125 0  0.7109375 0.0078125 0  0.71875 0.0078125 0  0.7265625 0.0078125 0  0.734375 0.0078125 0  0.7421875 0.0078125 0  0.75 0.0078125 0  0.7578125 0.0078125 0  0.765625 0.0078125 0  0.7734375 0.0078125 0  0.78125 0.0078125 0  0.7890625 0.0078125 0  0.796875 0.0078125 0  0.8046875 0.0078125 0  0.8125 0.0078125 0  0.8203125 0.0078125 0  0.828125 0.0078125 0  0.8359375 0.0078125 0  0.84375 0.0078125 0  0.8515625 0.0078125 0  0.859375 0.0078125 0  0.8671875 0.0078125 0  0.875 0.0078125 0  0.8828125 0.0078125 0  0.890625 0.0078125 0  0.8984375 0.0078125 0  0.90625 0.0078125 0  0.9140625 0.0078125 0  0.921875 0.0078125 0  0.9296875 0.0078125 0  0.9375 0.0078125 0  0.9453125 0.0078125 0  0.953125 0.0078125 0  0.9609375 0.0078125 0  0.96875 0.0078125 0  0.9765625 0.0078125 0  0.984375 0.0078125 0  0.9921875 0.0078125 0  1 0.0078125 0  0 0.015625 0  0.0078125 0.015625 0  0.015625 0.015625 0  0.0234375 0.015625 0  0.03125 0.015625 0  0.0390625 0.015625 0  0.046875 0.015625 0  0.0546875 0.015625 0  0.0625 0.015625 0  0.0703125 0.015625 0  0.078125 0.015625 0  0.0859375 0.015625 0  0.09375 0.015625 0  0.1015625 0.015625 0  0.109375 0.015625 0  0.1171875 0.015625 0  0.125 0.015625 0  0.1328125 0.015625 0  0.140625 0.015625 0  0.1484375 0.015625 0  0.15625 0.015625 0  0.1640625 0.015625 0  0.171875 0.015625 0  0.1796875 0.015625 0  0.1875 0.015625 0  0.1953125 0.015625 0  0.203125 0.015625 0  0.2109375 0.015625 0  0.21875 0.015625 0  0.2265625 0.015625 0  0.234375 0.015625 0  0.2421875 0.015625 0  0.25 0.015625 0  0.2578125 0.015625 0  0.265625 0.015625 0  0.2734375 0.015625 0  0.28125 0.015625 0  0.2890625 0.015625 0  0.296875 0.015625 0  0.3046875 0.015625 0  0.3125 0.015625 0  0.3203125 0.015625 0  0.328125 0.015625 0  0.3359375 0.015625 0  0.34375 0.015625 0  0.3515625 0.015625 0  0.359375 0.015625 0  0.3671875 0.015625 0  0.375 0.015625 0  0.3828125 0.015625 0  0.390625 0.015625 0  0.3984375 0.015625 0  0.40625 0.015625 0  0.4140625 0.015625 0  0.421875 0.015625 0  0.4296875 0.015625 0  0.4375 0.015625 0  0.4453125 0.015625 0  0.453125 0.015625 0  0.4609375 0.015625 0  0.46875 0.015625 0  0.4765625 0.015625 0  0.484375 0.015625 0  0.4921875 0.015625 0  0.5 0.015625 0  0.5078125 0.015625 0  0.515625 0.015625 0  0.5234375 0.015625 0  0.53125 0.015625 0  0.5390625 0.015625 0  0.546875 0.015625 0  0.5546875 0.015625 0  0.5625 0.015625 0  0.5703125 0.015625 0  0.578125 0.015625 0  0.5859375 0.015625 0  0.59375 0.015625 0  0.6015625 0.015625 0  0.609375 0.015625 0  0.6171875 0.015625 0  0.625 0.015625 0  0.6328125 0.015625 0  0.640625 0.015625 0  0.6484375 0.015625 0  0.65625 0.015625 0  0.6640625 0.015625 0  0.671875 0.015625 0  0.6796875 0.015625 0  0.6875 0.015625 0  0.6953125 0.015625 0  0.703125 0.015625 0  0.7109375 0.015625 0  0.71875 0.015625 0  0.7265625 0.015625 0  0.734375 0.015625 0  0.7421875 0.015625 0  0.75 0.015625 0  0.7578125 0.015625 0  0.765625 0.015625 0  0.7734375 0.015625 0  0.78125 0.015625 0  0.7890625 0.015625 0  0.796875 0.015625 0  0.8046875 0.015625 0  0.8125 0.015625 0  0.8203125 0.015625 0  0.828125 0.015625 0  0.8359375 0.015625 0  0.84375 0.015625 0  0.8515625 0.015625 0  0.859375 0.015625 0  0.8671875 0.015625 0  0.875 0.015625 0  0.8828125 0.015625 0  0.890625 0.015625 0  0.8984375 0.015625 0  0.90625 0.015625 0  0.9140625 0.015625 0  0.921875 0.015625 0  0.9296875 0.015625 0  0.9375 0.015625 0  0.9453125 0.015625 0  0.953125 0.015625 0  0.9609375 0.015625 0  0.96875 0.015625 0  0.9765625 0.015625 0  0.984375 0.015625 0  0.9921875 0.015625 0  1 0.015625 0  0 0.0234375 0  0.0078125 0.0234375 0  0.015625 0.0234375 0  0.0234375 0.0234375 0  0.03125 0.0234375 0  0.0390625 0.0234375 0  0.046875 0.0234375 0  0.0546875 0.0234375 0  0.0625 0.0234375 0  0.0703125 0.0234375 0  0.078125 0.0234375 0  0.0859375 0.0234375 0  0.09375 0.0234375 0  0.1015625 0.0234375 0  0.109375 0.0234375 0  0.1171875 0.0234375 0  0.125 0.0234375 0  0.1328125 0.0234375 0  0.140625 0.0234375 0  0.1484375 0.0234375 0  0.15625 0.0234375 0  0.1640625 0.0234375 0  0.171875 0.0234375 0  0.1796875 0.0234375 0  0.1875 0.0234375 0  0.1953125 0.0234375 0  0.203125 0.0234375 0  0.2109375 0.0234375 0  0.21875 0.0234375 0  0.2265625 0.0234375 0  0.234375 0.0234375 0  0.2421875 0.0234375 0  0.25 0.0234375 0  0.2578125 0.0234375 0  0.265625 0.0234375 0  0.2734375 0.0234375 0  0.28125 0.0234375 0  0.2890625 0.0234375 0  0.296875 0.0234375 0  0.3046875 0.0234375 0  0.3125 0.0234375 0  0.3203125 0.0234375 0  0.328125 0.0234375 0  0.3359375 0.0234375 0  0.34375 0.0234375 0  0.3515625 0.0234375 0  0.359375 0.0234375 0  0.3671875 0.0234375 0  0.375 0.0234375 0  0.3828125 0.0234375 0  0.390625 0.0234375 0  0.3984375 0.0234375 0  0.40625 0.0234375 0  0.4140625 0.0234375 0  0.421875 0.0234375 0  0.4296875 0.0234375 0  0.4375 0.0234375 0  0.4453125 0.0234375 0  0.453125 0.0234375 0  0.4609375 0.0234375 0  0.46875 0.0234375 0  0.4765625 0.0234375 0  0.484375 0.0234375 0  0.4921875 0.0234375 0  0.5 0.0234375 0  0.5078125 0.0234375 0  0.515625 0.0234375 0  0.5234375 0.0234375 0  0.53125 0.0234375 0  0.5390625 0.0234375 0  0.546875 0.0234375 0  0.5546875 0.0234375 0  0.5625 0.0234375 0  0.5703125 0.0234375 0  0.578125 0.0234375 0  0.5859375 0.0234375 0  0.59375 0.0234375 0  0.6015625 0.0234375 0  0.609375 0.0234375 0  0.6171875 0.0234375 0  0.625 0.0234375 0  0.6328125 0.0234375 0  0.640625 0.0234375 0  0.6484375 0.0234375 0  0.65625 0.0234375 0  0.6640625 0.0234375 0  0.671875 0.0234375 0  0.6796875 0.0234375 0  0.6875 0.0234375 0  0.6953125 0.0234375 0  0.703125 0.0234375 0  0.7109375 0.0234375 0  0.71875 0.0234375 0  0.7265625 0.0234375 0  0.734375 0.0234375 0  0.7421875 0.0234375 0  0.75 0.0234375 0  0.7578125 0.0234375 0  0.765625 0.0234375 0  0.7734375 0.0234375 0  0.78125 0.0234375 0  0.7890625 0.0234375 0  0.796875 0.0234375 0  0.8046875 0.0234375 0  0.8125 0.0234375 0  0.8203125 0.0234375 0  0.828125 0.0234375 0  0.8359375 0.0234375 0  0.84375 0.0234375 0  0.8515625 0.0234375 0  0.859375 0.0234375 0  0.8671
[...]
<CellData  Scalars="f_80152"> 
<DataArray  type="Float64"  Name="f_80152"  format="ascii">5.9273957195188094e-07   5.9273957195189005e-07   5.9171894980424530e-07   5.9207239473520303e-07   5.8999110323576430e-07   5.9069709183522832e-07   5.8756001706736094e-07   5.8861680223489879e-07   5.8443138852814622e-07   5.8583638114105037e-07   5.8061260406166408e-07   5.8236237884409134e-07   5.7611271729555409e-07   5.7820302072356792e-07   5.7094242517226825e-07   5.7336818539257540e-07   5.6511404113932602e-07   5.6786937987568435e-07   5.5864146496207558e-07   5.6171971137945444e-07   5.5154014899474626e-07   5.5493385548682760e-07   5.4382706087068930e-07   5.4752802073183758e-07   5.3552064263627370e-07   5.3951990957499052e-07   5.2664076638956118e-07   5.3092867583569712e-07   5.1720868650825646e-07   5.2177487866230719e-07   5.0724698856801571e-07   5.1208043313659677e-07   4.9677953506525143e-07   5.0186855762259345e-07   4.8583140806934476e-07   4.9116371798115240e-07   4.7442884893832753e-07   4.7999156878025284e-07   4.6259919524078877e-07   4.6837889164034517e-07   4.5037081503392681e-07   4.5635353086113623e-07   4.3777303865496488e-07   4.4394432648406309e-07   4.2483608818930465e-07   4.3118104495030792e-07   4.1159100478484525e-07   4.1809430752140157e-07   3.9806957398718535e-07   4.0471551663413738e-07   3.8430424927536758e-07   3.9107678036723838e-07   3.7032807398238686e-07   3.7721083520132924e-07   3.5617460178835522e-07   3.6315096725900815e-07   3.4187781597813676e-07   3.4893093221374271e-07   3.2747204765798151e-07   3.3458487406172538e-07   3.1299189312832373e-07   3.2014724295186171e-07   2.9847213061192995e-07   3.0565271227212848e-07   2.8394763653833279e-07   2.9113609519245628e-07   2.6945330158628389e-07   2.7663226086533887e-07   2.5502394668676736e-07   2.6217605048563898e-07   2.4069423918921524e-07   2.4780219341372710e-07   2.2649860939293494e-07   2.3354522356181435e-07   2.1247116764531242e-07   2.1943939624739301e-07   1.9864562220651494e-07   2.0551860571302310e-07   1.8505519807890053e-07   1.9181630351182182e-07   1.7173255699694621e-07   1.7836541795532031e-07   1.5870971877056708e-07   1.6519827481860804e-07   1.4601798417157404e-07   1.5234651949282056e-07   1.3368785954934289e-07   1.3984104077400116e-07   1.2174898335736458e-07   1.2771189647132536e-07   1.1023005476801326e-07   1.1598824101445019e-07   9.9158764547618539e-08   1.0469825523453785e-07   8.8561728358594431e-08   9.3869078488223223e-08   7.8464422649488230e-08   8.3526743288355054e-08   6.8891123287574396e-08   7.3696112599299616e-08   5.9864847081923744e-08   6.4400819947361856e-08   5.1407296338134011e-08   5.5663212491900674e-08   4.3538806578285627e-08   4.7504297193433022e-08   3.6278297552281662e-08   3.9943690209025077e-08   2.9643227658741307e-08   3.2999569636827404e-08   2.3649551885290675e-08   2.6688631724156068e-08   1.8311683369792294e-08   2.1026050643975521e-08   1.3642458675138494e-08   1.6025441937600547e-08   9.6531068613390007e-09   1.1698829711277234e-08   6.3532224296257496e-09   8.0566176657652803e-09   3.7507422036303283e-09   5.1075640292023734e-09   1.8519262035646499e-09   2.8587604532344742e-09   6.6134255943507405e-10   1.3156149235872877e-09   1.8185649969703892e-10   4.8183872624137866e-10   4.1462344192676336e-10   3.5943750059652417e-10   1.3590862021557126e-09   9.4870640128548956e-10   3.0129763296054998e-09   2.2482293802606648e-09   5.3723195636118428e-09   4.2548825908953501e-09   8.4314453995933126e-09   6.9638419059510099e-09   1.2183000740956481e-08   1.0368594531193302e-08   1.6617967604084843e-08   1.4460954686742740e-08   2.1725684833628324e-08   1.9231083318313210e-08   2.7493873775848719e-08   2.4667511790828161e-08   3.3908667847974523e-08   3.0757169507183311e-08   4.0954645932340303e-08   3.7485415385797585e-08   4.8614869514803117e-08   4.4836073120735711e-08   5.6870923477777522e-08   5.2791470139585243e-08   6.5702960449621450e-08   6.1332480165131512e-08   7.5089748603303761e-08   7.0438569278065191e-08   8.5008722789211819e-08   8.0087845369786569e-08   9.5436038878669906e-08   9.0257110865888841e-08   1.0634663118715237e-07   1.0092191859343163e-07   1.1771427283872897e-07   1.1205663065682503e-07   1.2951163892610412e-07   1.2363448018094577e-07   1.4171037231399878e-07   1.3562763577199435e-07   1.5428115192702340e-07   1.4800726854090460e-07   1.6719376335754298e-07   1.6074362152783112e-07   1.8041717162306328e-07   1.7380608135977033e-07   1.9391959589771743e-07   1.8716325196904627e-07   2.0766858603763639e-07   2.0078303019438290e-07   2.2163110071552984e-07   2.1463268308283085e-07   2.3577358697612112e-07   2.2867892670493118e-07   2.5006206102039842e-07   2.4288800629467211e-07   2.6446219002398779e-07   2.5722577751935085e-07   2.7893937479207585e-07   2.7165778868430051e-07   2.9345883305168350e-07   2.8614936367364559e-07   3.0798568318017122e-07   3.0066568542745801e-07   3.2248502816810617e-07   3.1517187975319220e-07   3.3692203961382626e-07   3.2963309927039397e-07   3.5126204154711285e-07   3.4401460728450588e-07   3.6547059387965609e-07   3.5828186138899901e-07   3.7951357528088522e-07   3.7240059659307639e-07   3.9335726527925803e-07   3.8633690777458739e-07   4.0696842539074149e-07   4.0005733125931485e-07   4.2031437907864520e-07   4.1352892532934350e-07   4.3336309035184361e-07   4.2671934946665742e-07   4.4608324081140699e-07   4.3959694213989836e-07   4.5844430495958416e-07   4.5213079694696885e-07   4.7041662358916195e-07   4.6429083692920409e-07   4.8197147507565071e-07   4.7604788687727423e-07   4.9308114439974850e-07   4.8737374345427619e-07   5.0371898973303682e-07   4.9824124296539124e-07   5.1385950642498780e-07   5.0862432661061698e-07   5.2347838823596676e-07   5.1849810306094571e-07   5.3255258566658258e-07   5.2783890820588761e-07   5.4106036124008650e-07   5.3662436192547544e-07   5.4898134160119617e-07   5.4483342174595985e-07   5.5629656629986185e-07   5.5244643324486884e-07   5.6298853313452033e-07   5.5944517707517775e-07   5.6904123993216755e-07   5.6581291248208074e-07   5.7444022264290030e-07   5.7153441718569627e-07   5.7917258961905349e-07   5.7659602349520594e-07   5.8322705192609390e-07   5.8098565049610970e-07   5.8659394947100537e-07   5.8469283209097042e-07   5.8926527257561906e-07   5.8770874051246705e-07   5.9123467817449001e-07   5.9002620447453681e-07   5.9249749835447288e-07   5.9163971964610441e-07   5.9305073280820304e-07   5.9254544292098743e-07   5.9207239473520325e-07   5.9171894980426330e-07   5.9105484183181804e-07   5.9105484183182778e-07   5.8933146752274980e-07   5.8968485930457078e-07   5.8690632529428340e-07   5.8761220818340690e-07   5.8378513471102666e-07   5.8484176226096299e-07   5.7997528395290081e-07   5.8138006777164094e-07   5.7548581678074949e-07   5.7723533240889224e-07   5.7032741253997173e-07   5.7241740736185624e-07   5.6451236121004152e-07   5.6693776437644368e-07   5.5805453420360960e-07   5.6080946854065682e-07   5.5096935121673137e-07   5.5404714709135646e-07   5.4327374329631086e-07   5.4666695440404030e-07   5.3498611224584918e-07   5.3868653328251385e-07   5.2612628647894354e-07   5.3012497265311235e-07   5.1671547343099681e-07   5.2100276176977214e-07   5.0677620864448624e-07   5.1134174104074524e-07   4.9633230164999591e-07   5.0116504959553766e-07   4.8540877877326201e-07   4.9049706971774328e-07   4.7403182300490513e-07   4.7936336827628903e-07   4.6222871107760025e-07   4.6779063529752192e-07   4.5002774790157339e-07   4.5580661982338868e-07   4.3745819851654010e-07   4.4344006321212693e-07   4.2455021772328643e-07   4.3072063004039282e-07   4.1133477756497710e-07   4.1767883677435745e-07   3.9784359283242531e-07   4.0434597838101608e-07   3.8410904477314461e-07   3.9075405305662178e-07   3.7016410318773695e-07   3.7693568525389961e-07   3.5604224710214826e-07   3.6292404719359154e-07   3.4177738420601744e-07   3.4875277904951963e-07   3.2740376925243381e-07   3.3445590799934553e-07   3.1295592161528271e-07   3.2006776633716054e-07   2.9846854220306620e-07   3.0562290884429128e-07   2.8397642992987684e-07   2.9115602961826800e-07   2.6951439794481469e-07   2.7670187856081180e-07   2.5511718982152634e-07   2.6229517772532023e-07   2.4081939591129515e-07   2.4797053772676783e-07   2.2665537005940145e-07   2.3376237441473457e-07   2.1265914688765662e-07   2.1970482601106106e-07   1.9886435984140939e-07   2.0583167091193929e-07   1.8530416019905026e-07   1.9217624635246646e-07   1.7201113723926003e-07   1.7877136813014171e-07   1.5901723975907781e-07   1.6564925158085519e-07   1.4635369913101065e-07   1.5284143399762942e-07   1.3405095408596083e-07   1.4037869867996153e-07   1.2213857740256202e-07   1.2829100079624416e-07   1.1064520468006491e-07   1.1660739523855203e-07   9.9598465366600527e-08   1.0535596664338766e-07   8.9024916208947376e-08   9.4563761747714052e-08   7.8949977284535081e-08   8.4256724242809898e-08   6.9397870770038607e-08   7.4459632283920370e-08   6.0391562593541981e-08   6.5196038804945484e-08   5.1952707112256560e-08   5.6488214784016897e-08   4.4101594947997107e-08   4.8357095595403766e-08   3.6857104106883227e-08   4.0822230577551328e-08   3.0236654500834035e-08   3.3901735938919028e-08   2.4256165981043726e-08   2.7612251115330643e-08   1.8930019983853101e-08   2.1968898683748553e-08   1.4271024882298235e-08   1.6985247929564826e-08   1.0290385126459058e-08   1.2673282154873679e-08   6.9976742469610017e-09   9.0433698068591462e-09   4.4008117871815249e-09   6.1042394958554891e-09   2.5060442193336634e-09   3.8629589632091336e-09   1.3179298906751460e-09   2.3249180499011512e-09   8.3932803615995400e-10   1.4938157067638381e-09   1.0713918838880885e-09   1.3716510778407337e-09   2.0135658701849300e-09   1.9587186781961759e-09   3.6635869708093955e-09   3.2536076780091052e-09   6.0174901452581509e-09   5.2532052944959502e-09   9.0696178809655816e-09   7.9527042836513693e-09   1.2812633814347277e-08   1.1345614513601694e-08   1.7237540395918516e-08   1.5423778591790248e-08   2.2333700556851719e-08   2.0177391508250875e-08   2.8088863324722700e-08   2.5595024247581185e-08   3.4489193326568706e-08   3.1663651312595487e-08   4.1519304108450029e-08   3.8368682093813659e-08   4.9162295190696357e-08   4.5693996008170292e-08   5.7399792769753808e-08   5.3621981323092683e-08   6.6211993968516516e-08   6.2133577571973139e-08   7.5577714528222622e-08   7.1208321458618245e-08   8.5474439827097887e-08   8.0824396140258826e-08   9.5878379102489880e-08   9.0958683770019946e-08   1.0676452274605320e-07   1.0158682117241793e-07   1.1810670253331229e-07   1.1268325851711183e-07   1.2987765464292573e-07   1.2422132085012793e-07   1.4204908531315845e-07   1.3617327233340383e-07   1.5459173897744411e-07   1.4851038303842233e-07   1.6747546871482618e-07   1.6120299813214514e-07   1.8066930884492584e-07   1.7422060928898548e-07   1.9414154949289840e-07   1.8753192815626894e-07   2.0785981294398232e-07   2.0110496169599307e-07   2.2179113160414797e-07   2.1490708922123731e-07   2.3590202737767538e-07   2.2890514094138914e-07   2.5015859227172276e-07   2.4306547782679328e-07   2.6452657003198227e-07   2.5735407259997658e-07   2.7897143861348113e-07   2.7173659165815862e-07   2.9345849328701512e-07   2.8617847772990848e-07   3.0795293018118558e-07   3.0064503306538593e-07   3.2241993005784304e-07   3.1510150296082643e-07   3.3682474211978789e-07   3.2951315941475309e-07   3.5113276764725607e-07   3.4384538471466349e-07   3.6530964326256746e-07   3.5806375475205242e-07   3.7932132362133199e-07   3.7213412186512663e-07   3.9313416333067471e-07   3.8602269700902853e-07   4.0671499789709306e-07   3.9969613105522565e-07   4.2003122350812265e-07   4.1312159502419211e-07   4.3305087545565420e-07   4.2626685905694026e-07   4.4574270501093068e-07   4.3910036993551022e-07   4.5807625456600282e-07   4.5159132696451210e-07   4.7002193085989417e-07   4.6370975603083065e-07   4.8155107611222991e-07   4.7542658166185000e-07   4.9263603689264325e-07   4.8671369690861357e-07   5.0325023055840096e-07   4.9754403088381932e-07   5.1336820910003609e-07   5.0789161379146696e-07   5.2296572023880957e-07   5.1773163928964062e-07   5.3201976562763327e-07   5.2704052403466465e-07   5.4050865601245362e-07   5.3579596426033038e-07   5.4841206321762578e-07   5.4397698925271933e-07   5.5571106882545886e-07   5.5156401158645431e-07   5.6238820942487068e-07   5.5853887399439986e-07   5.6842751830900843e-07   5.6488489274595674e-07   5.7381456350331122e-07   5.7058689741172461e-07   5.7853648200242700e-07   5.7563126688848384e-07   5.8258201008096714e-07   5.8000596154506811e-07   5.8594150950879055e-07   5.8370055131531670e-07   5.8860698941633629e-07   5.8670623947981040e-07   5.9057212334764995e-07   5.8901588167367739e-07   5.9183226051967771e-07   5.9062399915526265e-07   5.9238442938597024e-07   5.9152678452716677e-07   5.9069709183523573e-07   5.8999110323578907e-07   5.8968485930456856e-07   5.8933146752276727e-07   5.8796999511024517e-07   5.8796999511025174e-07   5.8555654877302057e-07   5.8590988833849178e-07   5.8245022650983316e-07   5.8315600593698705e-07   5.7865839170959805e-07   5.7971486558297483e-07   5.7419005288797117e-07   5.7559463391744717e-07   5.6905584461164959e-07   5.7080510951636622e-07   5.6326800327936687e-07   5.6535770070225500e-07   5.5684033848444388e-07   5.5926539891668355e-07   5.4978820030647292e-07   5.5254274799738559e-07   5.4212844274224831e-07   5.4520580956470997e-07   5.3387938342949044e-07   5.3727212466731142e-07   5.2506075979389679e-07   5.2876067181244370e-07   5.1569368174353383e-07   5.1969182150080882e-07   5.0580058103406214e-07   5.1008728738448450e-07   4.9540515743263110e-07   4.9997007417225701e-07   4.8453232181333037e-07   4.8936442241023906e-07   4.7320813632244697e-07   4.7829575027296884e-07   4.6145975176073845e-07   4.6679059250677213e-07   4.4931534233201388e-07   4.5487653667297518e-07   4.3680403791791470e-07   4.4258215684503593e-07   4.2395585404096854e-07   4.2993694492040059e-07   4.1080161968608715e-07   4.1697123971205587e-07   3.9737290315406805e-07   4.0371615399174872e-07   3.8370193612617732e-07   3.9020349966020551e-07   3.6982153612315819e-07   3.7646571122590622e-07   3.5576502754577538e-07   3.6253576777557064e-07   3.4156616148729711e-07   3.4844711362626369e-07   3.2725903451103538e-07   3.3423357784931861e-07   3.1287800658985299e-07   3.1992929286075282e-07   2.9845761840444222e-07   3.0556861227474996e-07   2.8403250820057955e-07   2.9118602821771012e-07   2.6963732840615126e-07   2.7681608830332966e-07   2.5530666220806214e-07   2.6249331246782055e-07   2.4107494029152820e-07   2.4825210986713806e-07   2.2697635794168539e-07   2.3412669603555630e-07   2.1304479270786509e-07   2.2015101050637038e-07   1.9931372282919195e-07   2.0635863509262663e-07   1.8581614661797012e-07   1.9278271302566632e-07   1.7258450299563344e-07   1.7945586914633467e-07   1.5965059337288562e-07   1.6641013134084618e-07   1.4704550506208940e-07   1.5367685341165577e-07   1.3479953640726639e-07   1.4128663956904944e-07   1.2294212381170303e-07   1.2926927072507962e-07   1.1150177083962625e-07   1.1765363276857825e-07   1.0050597956243164e-07   1.0646764699320729e-07   8.9981184315701934e-08   9.5738202847262306e-08   7.9952688026089258e-08   8.5491093167016780e-08   7.0444601262550503e-08   7.5750952049564357e-08   6.1479784157415305e-08   6.6541195515456030e-08   5.3079791339239454e-08   5.7883965104193598e-08   4.5264820008895842e-08   4.9800074538278876e-08   3.8053661284536379e-08   4.2308959584813724e-08   3.1463654932788593e-08   3.5428631235275409e-08   2.5510647595543941e-08   2.9175632316719279e-08   2.0208954612597955e-08   2.3564997638872038e-08   1.5571325532826137e-08   1.8610217773042931e-08   1.1608913396513029e-08   1.4323206550605686e-08   8.3312478632372265e-09   1.0714272359186394e-08   5.7462122501085853e-09   7.7920933058007475e-09   3.8600245355211826e-09   5.5636963068995666e-09   2.6772223744966332e-09   4.0344401557604101e-09   2.2006521615610333e-09   3.2080026079587179e-09   2.4314621676671250e-09   3.0863715162408567e-09   3.3690997675509079e-09   3.6698400360388641e-09   5.0113127644169811e-09   4.9570059132012454e-09   7.3541548085756335e-09   6.9447748557811071e-09   1.0391994897074809e-08   9.6283679816307622e-09   1.4117530931346769e-08   1.3001333323877838e-08   1.8521807300229223e-08   1.7055561366556717e-08   2.3594236445960221e-08   2.1781304572981306e-08   2.9322624361040769e-08   2.7167200859592558e-08   3.5693199954513429e-08   3.3200300958929198e-08   4.2690648217203324e-08   3.9866099605502597e-08   5.0298147105070197e-08   4.7148570469605266e-08   5.8497408052635298e-08   5.5030204754384149e-08   6.7268720018351387e-08   6.3492053363809602e-08   7.6590996955591535e-08   7.2513772538983625e-08   8.6441828595039943e-08   8.2073672853454951e-08   9.6797534415857014e-08   9.2148771449142003e-08   1.0763322067556827e-07   1.0271484738649735e-07   1.1892284036078781e-07   1.1374649997616364e-07   1.3063925591478114e-07   1.2521720995073587e-07   1.4275430458999757e-07   1.3709940332968815e-07   1.5523886626842161e-07   1.4936451782289143e-07   1.6806293358565069e-07   1.6198307161301484e-07   1.8119568419014147e-07   1.7492473435057503e-07   1.9460555496294230e-07   1.8815840019084627e-07   2.0826031801895514e-07   2.0165226269570554e-07   2.2212715830657275e-07   2.1537389142077498e-07   2.3617275261827130e-07   2.2929031000208060e-07   2.5036334982184875e-07   2.4336807555472060e-07   2.6466485211849638e-07   2.5757335919158255e-07   2.7904289713176515e-07   2.7187202746772583e-07   2.9346294062981067e-07   2.8622972455462970e-07   3.0789033968041484e-07   3.0061195494528134e-07   3.2229043603919042e-07   3.1498416649119287e-07   3.3662863956915093e-07   3.2931183357034832e-07   3.5087051149069065e-07   3.4356054018650658e-07   3.6498184726070542e-07   3.5769606279804839e-07   3.7892875888135722e-07   3.7168445267740608e-07   3.9267775643952397e-07   3.8549211760187503e-07   4.0619582868015192e-07   3.9908590267908232e-07   4.1945052241929322e-07   4.1243317011162068e-07   4.3241002060453664e-07   4.2550187770808855e-07   4.4504321883503752e-07   4.3826065595184057e-07   4.5731980015573398e-07   4.5067888344025303e-07   4.6921030794550540e-07   4.6272676051291076e-07   4.8068621672247822e-07   4.7437538089057104e-07   4.9172000069601154e-07   4.8559680115149290e-07   5.0228519989857483e-07   4.9636410787709357e-07   5.1235648373785269e-07   5.0665148230405659e-07   5.2190971181430434e-07   5.1643426232613948e-07   5.3092199185643852e-07   5.2568900169431579e-07   5.3937173463187497e-07   5.3439352627114185e-07   5.4723870569941536e-07   5.4252698720045549e-07   5.5450407387321579e-07   5.5006991086101528e-07   5.6115045627739279e-07   5.5700424547760521e-07   5.6716195987362090e-07   5.6331340426987729e-07   5.7252421934985171e-07   5.6898230502187944e-07   5.7722443125904561e-07   5.7399740595800373e-07   5.8125138429305655e-07   5.7834673780636717e-07   5.8459548556278787e-07   5.8201993191712469e-07   5.8724878272081201e-07   5.8500824426982431e-07   5.8920498170150504e-07   5.8730457514578511e-07   5.9045945985015882e-07   5.8890348424593361e-07   5.9100927500704140e-07   5.8980120184270775e-07   5.8861680223490990e-07   5.8756001706739016e-07   5.8761220818341283e-07   5.8690632529430331e-07   5.8590988833848564e-07   5.8555654877303454e-07   5.8351386206760138e-07   5.8351386206761006e-07   5.8042979957806206e-07   5.8078308822097371e-07   5.7666501688850798e-07   5.7737069580776860e-07   5.7222846289303818e-07   5.7328478806479068e-07   5.6713070034948497e-07   5.6853508593540394e-07   5.6138388193347744e-07   5.6313290616809485e-07   5.5500172192859267e-07   5.5709113503562034e-07   5.4799946386339767e-07   5.5042419798090381e-07   5.4039384429366532e-07   5.4314802538384375e-07   5.3220305288333680e-07   5.3528001459759033e-07   5.2344668891640335e-07   5.2683898838157961e-07   5.14145714