<?xml version="1.0"?>
<VTKFile type="UnstructuredGrid"  version="0.1"  >
<UnstructuredGrid>
<Piece  NumberOfPoints="16641" NumberOfCells="32768">
<Points>
<DataArray  type="Float64"  NumberOfComponents="3"  format="ascii">0 0 0  0.0078125 0 0  0.015625 0 0  0.0234375 0 0  0.03125 0 0  0.0390625 0 0  0.046875 0 0  0.0546875 0 0  0.0625 0 0  0.0703125 0 0  0.078125 0 0  0.0859375 0 0  0.09375 0 0  0.1015625 0 0  0.109375 0 0  0.1171875 0 0  0.125 0 0  0.1328125 0 0  0.140625 0 0  0.1484375 0 0  0.15625 0 0  0.1640625 0 0  0.171875 0 0  0.1796875 0 0  0.1875 0 0  0.1953125 0 0  0.203125 0 0  0.2109375 0 0  0.21875 0 0  0.2265625 0 0  0.234375 0 0  0.2421875 0 0  0.25 0 0  0.2578125 0 0  0.265625 0 0  0.2734375 0 0  0.28125 0 0  0.2890625 0 0  0.296875 0 0  0.3046875 0 0  0.3125 0 0  0.3203125 0 0  0.328125 0 0  0.3359375 0 0  0.34375 0 0  0.3515625 0 0  0.359375 0 0  0.3671875 0 0  0.375 0 0  0.3828125 0 0  0.390625 0 0  0.3984375 0 0  0.40625 0 0  0.4140625 0 0  0.421875 0 0  0.4296875 0 0  0.4375 0 0  0.4453125 0 0  0.453125 0 0  0.4609375 0 0  0.46875 0 0  0.4765625 0 0  0.484375 0 0  0.4921875 0 0  0.5 0 0  0.5078125 0 0  0.515625 0 0  0.5234375 0 0  0.53125 0 0  0.5390625 0 0  0.546875 0 0  0.5546875 0 0  0.5625 0 0  0.5703125 0 0  0.578125 0 0  0.5859375 0 0  0.59375 0 0  0.6015625 0 0  0.609375 0 0  0.6171875 0 0  0.625 0 0  0.6328125 0 0  0.640625 0 0  0.6484375 0 0  0.65625 0 0  0.6640625 0 0  0.671875 0 0  0.6796875 0 0  0.6875 0 0  0.6953125 0 0  0.703125 0 0  0.7109375 0 0  0.71875 0 0  0.7265625 0 0  0.734375 0 0  0.7421875 0 0  0.75 0 0  0.7578125 0 0  0.765625 0 0  0.7734375 0 0  0.78125 0 0  0.7890625 0 0  0.796875 0 0  0.8046875 0 0  0.8125 0 0  0.8203125 0 0  0.828125 0 0  0.8359375 0 0  0.84375 0 0  0.8515625 0 0  0.859375 0 0  0.8671875 0 0  0.875 0 0  0.8828125 0 0  0.890625 0 0  0.8984375 0 0  0.90625 0 0  0.9140625 0 0  0.921875 0 0  0.9296875 0 0  0.9375 0 0  0.9453125 0 0  0.953125 0 0  0.9609375 0 0  0.96875 0 0  0.9765625 0 0  0.984375 0 0  0.9921875 0 0  1 0 0  0 0.0078125 0  0.0078125 0.0078125 0  0.015625 0.0078125 0  0.0234375 0.0078125 0  0.03125 0.0078125 0  0.0390625 0.0078125 0  0.046875 0.0078125 0  0.0546875 0.0078125 0  0.0625 0.0078125 0  0.0703125 0.0078125 0  0.078125 0.0078125 0  0.0859375 0.0078125 0  0.09375 0.0078125 0  0.1015625 0.0078125 0  0.109375 0.0078125 0  0.1171875 0.0078125 0  0.125 0.0078125 0  0.1328125 0.0078125 0  0.140625 0.0078125 0  0.1484375 0.0078125 0  0.15625 0.0078125 0  0.1640625 0.0078125 0  0.171875 0.0078125 0  0.1796875 0.0078125 0  0.1875 0.0078125 0  0.1953125 0.0078125 0  0.203125 0.0078125 0  0.2109375 0.0078125 0  0.21875 0.0078125 0  0.2265625 0.0078125 0  0.234375 0.0078125 0  0.2421875 0.0078125 0  0.25 0.0078125 0  0.2578125 0.0078125 0  0.265625 0.0078125 0  0.2734375 0.0078125 0  0.28125 0.0078125 0  0.2890625 0.0078125 0  0.296875 0.0078125 0  0.3046875 0.0078125 0  0.3125 0.0078125 0  0.3203125 0.0078125 0  0.328125 0.0078125 0  0.3359375 0.0078125 0  0.34375 0.0078125 0  0.3515625 0.0078125 0  0.359375 0.0078125 0  0.3671875 0.0078125 0  0.375 0.0078125 0  0.3828125 0.0078125 0  0.390625 0.0078125 0  0.3984375 0.0078125 0  0.40625 0.0078125 0  0.4140625 0.0078125 0  0.421875 0.0078125 0  0.4296875 0.0078125 0  0.4375 0.0078125 0  0.4453125 0.0078125 0  0.453125 0.0078125 0  0.4609375 0.0078125 0  0.46875 0.0078125 0  0.4765625 0.0078125 0  0.484375 0.0078125 0  0.4921875 0.0078125 0  0.5 0.0078125 0  0.5078125 0.0078125 0  0.515625 0.0078125 0  0.5234375 0.0078125 0  0.53125 0.0078125 0  0.5390625 0.0078125 0  0.546875 0.0078125 0  0.5546875 0.0078125 0  0.5625 0.0078125 0  0.5703125 0.0078125 0  0.578125 0.0078125 0  0.5859375 0.0078125 0  0.59375 0.0078125 0  0.6015625 0.0078125 0  0.609375 0.0078125 0  0.6171875 0.0078125 0  0.625 0.0078125 0  0.6328125 0.0078125 0  0.640625 0.0078125 0  0.6484375 0.0078125 0  0.65625 0.0078125 0  0.6640625 0.0078125 0  0.671875 0.0078125 0  0.6796875 0.0078125 0  0.6875 0.0078125 0  0.6953125 0.0078125 0  0.703125 0.0078125 0  0.7109375 0.0078125 0  0.71875 0.0078125 0  0.7265625 0.0078125 0  0.734375 0.0078125 0  0.7421875 0.0078125 0  0.75 0.0078125 0  0.7578125 0.0078125 0  0.765625 0.0078125 0  0.7734375 0.0078125 0  0.78125 0.0078125 0  0.7890625 0.0078125 0  0.796875 0.0078125 0  0.8046875 0.0078125 0  0.8125 0.0078125 0  0.8203125 0.0078125 0  0.828125 0.0078125 0  0.8359375 0.0078125 0  0.84375 0.0078125 0  0.8515625 0.0078125 0  0.859375 0.0078125 0  0.8671875 0.0078125 0  0.875 0.0078125 0  0.8828125 0.0078125 0  0.890625 0.0078125 0  0.8984375 0.0078125 0  0.90625 0.0078125 0  0.9140625 0.0078125 0  0.921875 0.0078125 0  0.9296875 0.0078125 0  0.9375 0.0078125 0  0.9453125 0.0078125 0  0.953125 0.0078125 0  0.9609375 0.0078125 0  0.96875 0.0078125 0  0.9765625 0.0078125 0  0.984375 0.0078125 0  0.9921875 0.0078125 0  1 0.0078125 0  0 0.015625 0  0.0078125 0.015625 0  0.015625 0.015625 0  0.0234375 0.015625 0  0.03125 0.015625 0  0.0390625 0.015625 0  0.046875 0.015625 0  0.0546875 0.015625 0  0.0625 0.015625 0  0.0703125 0.015625 0  0.078125 0.015625 0  0.0859375 0.015625 0  0.09375 0.015625 0  0.1015625 0.015625 0  0.109375 0.015625 0  0.1171875 0.015625 0  0.125 0.015625 0  0.1328125 0.015625 0  0.140625 0.015625 0  0.1484375 0.015625 0  0.15625 0.015625 0  0.1640625 0.015625 0  0.171875 0.015625 0  0.1796875 0.015625 0  0.1875 0.015625 0  0.1953125 0.015625 0  0.203125 0.015625 0  0.2109375 0.015625 0  0.21875 0.015625 0  0.2265625 0.015625 0  0.234375 0.015625 0  0.2421875 0.015625 0  0.25 0.015625 0  0.2578125 0.015625 0  0.265625 0.015625 0  0.2734375 0.015625 0  0.28125 0.015625 0  0.2890625 0.015625 0  0.296875 0.015625 0  0.3046875 0.015625 0  0.3125 0.015625 0  0.3203125 0.015625 0  0.328125 0.015625 0  0.3359375 0.015625 0  0.34375 0.015625 0  0.3515625 0.015625 0  0.359375 0.015625 0  0.3671875 0.015625 0  0.375 0.015625 0  0.3828125 0.015625 0  0.390625 0.015625 0  0.3984375 0.015625 0  0.40625 0.015625 0  0.4140625 0.015625 0  0.421875 0.015625 0  0.4296875 0.015625 0  0.4375 0.015625 0  0.4453125 0.015625 0  0.453125 0.015625 0  0.4609375 0.015625 0  0.46875 0.015625 0  0.4765625 0.015625 0  0.484375 0.015625 0  0.4921875 0.015625 0  0.5 0.015625 0  0.5078125 0.015625 0  0.515625 0.015625 0  0.5234375 0.015625 0  0.53125 0.015625 0  0.5390625 0.015625 0  0.546875 0.015625 0  0.5546875 0.015625 0  0.5625 0.015625 0  0.5703125 0.015625 0  0.578125 0.015625 0  0.5859375 0.015625 0  0.59375 0.015625 0  0.6015625 0.015625 0  0.609375 0.015625 0  0.6171875 0.015625 0  0.625 0.015625 0  0.6328125 0.015625 0  0.640625 0.015625 0  0.6484375 0.015625 0  0.65625 0.015625 0  0.6640625 0.015625 0  0.671875 0.015625 0  0.6796875 0.015625 0  0.6875 0.015625 0  0.6953125 0.015625 0  0.703125 0.015625 0  0.7109375 0.015625 0  0.71875 0.015625 0  0.7265625 0.015625 0  0.734375 0.015625 0  0.7421875 0.015625 0  0.75 0.015625 0  0.7578125 0.015625 0  0.765625 0.015625 0  0.7734375 0.015625 0  0.78125 0.015625 0  0.7890625 0.015625 0  0.796875 0.015625 0  0.8046875 0.015625 0  0.8125 0.015625 0  0.8203125 0.015625 0  0.828125 0.015625 0  0.8359375 0.015625 0  0.84375 0.015625 0  0.8515625 0.015625 0  0.859375 0.015625 0  0.8671875 0.015625 0  0.875 0.015625 0  0.8828125 0.015625 0  0.890625 0.015625 0  0.8984375 0.015625 0  0.90625 0.015625 0  0.9140625 0.015625 0  0.921875 0.015625 0  0.9296875 0.015625 0  0.9375 0.015625 0  0.9453125 0.015625 0  0.953125 0.015625 0  0.9609375 0.015625 0  0.96875 0.015625 0  0.9765625 0.015625 0  0.984375 0.015625 0  0.9921875 0.015625 0  1 0.015625 0  0 0.0234375 0  0.0078125 0.0234375 0  0.015625 0.0234375 0  0.0234375 0.0234375 0  0.03125 0.0234375 0  0.0390625 0.0234375 0  0.046875 0.0234375 0  0.0546875 0.0234375 0  0.0625 0.0234375 0  0.0703125 0.0234375 0  0.078125 0.0234375 0  0.0859375 0.0234375 0  0.09375 0.0234375 0  0.1015625 0.0234375 0  0.109375 0.0234375 0  0.1171875 0.0234375 0  0.125 0.0234375 0  0.1328125 0.0234375 0  0.140625 0.0234375 0  0.1484375 0.0234375 0  0.15625 0.0234375 0  0.1640625 0.0234375 0  0.171875 0.0234375 0  0.1796875 0.0234375 0  0.1875 0.0234375 0  0.1953125 0.0234375 0  0.203125 0.0234375 0  0.2109375 0.0234375 0  0.21875 0.0234375 0  0.2265625 0.0234375 0  0.234375 0.0234375 0  0.2421875 0.0234375 0  0.25 0.0234375 0  0.2578125 0.0234375 0  0.265625 0.0234375 0  0.2734375 0.0234375 0  0.28125 0.0234375 0  0.2890625 0.0234375 0  0.296875 0.0234375 0  0.3046875 0.0234375 0  0.3125 0.0234375 0  0.3203125 0.0234375 0  0.328125 0.0234375 0  0.3359375 0.0234375 0  0.34375 0.0234375 0  0.3515625 0.0234375 0  0.359375 0.0234375 0  0.3671875 0.0234375 0  0.375 0.0234375 0  0.3828125 0.0234375 0  0.390625 0.0234375 0  0.3984375 0.0234375 0  0.40625 0.0234375 0  0.4140625 0.0234375 0  0.421875 0.0234375 0  0.4296875 0.0234375 0  0.4375 0.0234375 0  0.4453125 0.0234375 0  0.453125 0.0234375 0  0.4609375 0.0234375 0  0.46875 0.0234375 0  0.4765625 0.0234375 0  0.484375 0.0234375 0  0.4921875 0.0234375 0  0.5 0.0234375 0  0.5078125 0.0234375 0  0.515625 0.0234375 0  0.5234375 0.0234375 0  0.53125 0.0234375 0  0.5390625 0.0234375 0  0.546875 0.0234375 0  0.5546875 0.0234375 0  0.5625 0.0234375 0  0.5703125 0.0234375 0  0.578125 0.0234375 0  0.5859375 0.0234375 0  0.59375 0.0234375 0  0.6015625 0.0234375 0  0.609375 0.0234375 0  0.6171875 0.0234375 0  0.625 0.0234375 0  0.6328125 0.0234375 0  0.640625 0.0234375 0  0.6484375 0.0234375 0  0.65625 0.0234375 0  0.6640625 0.0234375 0  0.671875 0.0234375 0  0.6796875 0.0234375 0  0.6875 0.0234375 0  0.6953125 0.0234375 0  0.703125 0.0234375 0  0.7109375 0.0234375 0  0.71875 0.0234375 0  0.7265625 0.0234375 0  0.734375 0.0234375 0  0.7421875 0.0234375 0  0.75 0.0234375 0  0.7578125 0.0234375 0  0.765625 0.0234375 0  0.7734375 0.0234375 0  0.78125 0.0234375 0  0.7890625 0.0234375 0  0.796875 0.0234375 0  0.8046875 0.0234375 0  0.8125 0.0234375 0  0.8203125 0.0234375 0  0.828125 0.0234375 0  0.8359375 0.0234375 0  0.84375 0.0234375 0  0.8515625 0.0234375 0  0.859375 0.0234375 0  0.8671
[...]
<CellData  Scalars="f_97004"> 
<DataArray  type="Float64"  Name="f_97004"  format="ascii">1.4845755395139441e-07   1.4845755395139377e-07   1.4821779304676162e-07   1.4830677123809026e-07   1.4780036366046786e-07   1.4797809893645502e-07   1.4720624976522132e-07   1.4747230765813966e-07   1.4643686306645766e-07   1.4679059674119999e-07   1.4549403849939649e-07   1.4593459026379633e-07   1.4438002931786274e-07   1.4490633264435329e-07   1.4309750142954999e-07   1.4370828348248201e-07   1.4164952685594575e-07   1.4234331151808806e-07   1.4003957627409025e-07   1.4081468766477008e-07   1.3827151063043599e-07   1.3912607710676158e-07   1.3634957183301800e-07   1.3728153046430737e-07   1.3427837253667399e-07   1.3528547404135578e-07   1.3206288504160397e-07   1.3314269917457268e-07   1.2970842932939611e-07   1.3085835070678085e-07   1.2722066026371541e-07   1.2843791461098001e-07   1.2460555398543428e-07   1.2588720479374366e-07   1.2186939353434183e-07   1.2321234910902291e-07   1.1901875373155426e-07   1.2041977461577407e-07   1.1606048535878360e-07   1.1751619211435298e-07   1.1300169867232962e-07   1.1450857999897506e-07   1.0984974629141531e-07   1.1140416746484740e-07   1.0661220550194599e-07   1.0821041711038615e-07   1.0329686001826806e-07   1.0493500697635111e-07   9.9911681246870011e-08   1.0158581206515118e-07   9.6464809097085519e-08   9.8170885384773867e-08   9.2964532385069869e-08   9.4698438563127587e-08   8.9419268878215149e-08   9.1176822079286227e-08   8.5837545028120403e-08   8.7614505159463599e-08   8.2227975440955111e-08   8.4020055386100151e-08   7.8599242134671018e-08   8.0402118069181190e-08   7.4960073633089529e-08   7.6769395429529820e-08   7.1319223947206974e-08   7.3130625644227410e-08   6.7685451494441171e-08   6.9494561804725687e-08   6.4067498006606176e-08   6.5869950838338072e-08   6.0474067477395929e-08   6.2265512443868438e-08   5.6913805200235105e-08   5.8689918092215721e-08   5.3395276946935730e-08   5.5151770142578981e-08   4.9926948337412383e-08   5.1659581124601984e-08   4.6517164450119613e-08   4.8221753236301722e-08   4.3174129722436093e-08   4.4846558107367020e-08   3.9905888189378810e-08   4.1542116876471100e-08   3.6720304108313840e-08   3.8316380630679900e-08   3.3625043016383168e-08   3.5177111254115393e-08   3.0627553266266813e-08   3.2131862732015768e-08   2.7735048084820809e-08   2.9187962955266560e-08   2.4954488197840228e-08   2.6352496069261159e-08   2.2292565062781066e-08   2.3632285409646075e-08   1.9755684749943990e-08   2.1033877066088481e-08   1.7349952510876088e-08   1.8563524113630245e-08   1.5081158071271068e-08   1.6227171549796545e-08   1.2954761683764413e-08   1.4030441973488642e-08   1.0975880974267780e-08   1.1978622040507916e-08   9.1492786135399416e-09   1.0076649728105642e-08   7.4793508437094342e-09   8.3291024393853835e-09   5.9701168874217054e-09   6.7401859761962839e-09   4.6252092651070640e-09   5.3137244070969155e-09   3.4478650437352948e-09   4.0531508548107163e-09   2.4409180381548080e-09   2.9614992253884646e-09   1.6067919837808367e-09   2.0413968990163915e-09   9.4749469713029565e-10   1.2950584000788648e-09   4.6461323824771989e-10   7.2428006172265198e-10   1.5931008670483786e-10   3.3043569782314582e-10   3.2320340373192738e-11   1.1447329274873312e-10   8.3949943737117709e-11   7.6912716914956198e-11   3.1407495001062225e-10   2.1784447364046817e-10   7.2214181883365175e-10   5.3692948031872250e-10   1.3071687488421297e-09   1.0333998844416638e-09   2.0677480418877337e-09   1.7060609125031729e-09   3.0020494932184444e-09   2.5532937473241364e-09   4.1078247994435306e-09   3.5730594268752278e-09   5.3824129736602837e-09   4.7629037551934147e-09   6.8227467546917548e-09   6.1199632135588098e-09   8.4253599949810717e-09   7.6409718576696059e-09   1.0186396009354822e-08   9.3222691842331290e-09   1.2101616864496538e-08   1.1159808947955815e-08   1.4166413586780769e-08   1.3149168907718414e-08   1.6375817263825556e-08   1.5285561478454367e-08   1.8724511013040102e-08   1.7563845262980633e-08   2.1206842788287740e-08   1.9978537436150054e-08   2.3816838993815223e-08   2.2523826951251459e-08   2.6548218872616853e-08   2.5193588537019406e-08   2.9394409634584848e-08   2.7981397451376018e-08   3.2348562287924935e-08   3.0880544956498308e-08   3.5403568135742898e-08   3.3884054477730531e-08   3.8552075897968288e-08   3.6984698407499001e-08   4.1786509417404053e-08   4.0175015513715876e-08   4.5099085907187258e-08   4.3447328910697919e-08   4.8481834695683701e-08   4.6793764549284223e-08   5.1926616423638495e-08   5.0206270181557925e-08   5.5425142647283454e-08   5.3676634754431911e-08   5.8968995800175077e-08   5.7196508185567748e-08   6.2549649465620852e-08   6.0757421473560475e-08   6.6158488910839952e-08   6.4350807094256456e-08   6.9786831833343052e-08   6.7968019633915110e-08   7.3425949269537331e-08   7.1600356609436937e-08   7.7067086615113294e-08   7.5239079425489265e-08   8.0701484706576579e-08   7.8875434418042387e-08   8.4320400913081835e-08   8.2500673933573837e-08   8.7915130187714067e-08   8.6106077393036713e-08   9.1477026027488781e-08   8.9682972289960290e-08   9.4997521291472558e-08   9.3222755071887340e-08   9.8468148826896896e-08   9.6716911854944394e-08   1.0188056185349709e-07   1.0015703892148236e-07   1.0522655405690661e-07   1.0353486295143830e-07   1.0849807934267397e-07   1.0684226093860204e-07   1.1168727120322964e-07   1.1007127974364405e-07   1.1478646165110802e-07   1.1321415523700936e-07   1.1778819967271746e-07   1.1626333098518195e-07   1.2068526915814020e-07   1.1921147643535119e-07   1.2347070626367786e-07   1.2205150455468452e-07   1.2613781616517487e-07   1.2477658888140141e-07   1.2868018916164492e-07   1.2738017994655657e-07   1.3109171609023603e-07   1.2985602102682208e-07   1.3336660301516146e-07   1.3219816318992515e-07   1.3549938515485574e-07   1.3440097959639726e-07   1.3748494001348658e-07   1.3645917902257102e-07   1.3931849968439194e-07   1.3836781857168987e-07   1.4099566229498710e-07   1.4012231554152028e-07   1.4251240256394374e-07   1.4171845841834835e-07   1.4386508144277843e-07   1.4315241696831802e-07   1.4505045481417802e-07   1.4442075139744630e-07   1.4606568121808347e-07   1.4552042054999367e-07   1.4690832857057744e-07   1.4644878910908111e-07   1.4757637982380693e-07   1.4720363374610899e-07   1.4806823746473390e-07   1.4778314811456433e-07   1.4838272658322903e-07   1.4818594641431141e-07   1.4851909553238518e-07   1.4841106453721795e-07   1.4830677123809024e-07   1.4821779304676085e-07   1.4806761500062956e-07   1.4806761500062819e-07   1.4765112886587704e-07   1.4774009988331564e-07   1.4705830381798054e-07   1.4723602484378165e-07   1.4629055273716792e-07   1.4655658940608467e-07   1.4534970891077664e-07   1.4570341449898111e-07   1.4423802217883735e-07   1.4467853911619303e-07   1.4295815372766083e-07   1.4348441562042568e-07   1.4151316977353980e-07   1.4212390393226159e-07   1.3990653422711162e-07   1.4060026469350124e-07   1.3814210038326858e-07   1.3891715144840851e-07   1.3622410166652492e-07   1.3707860187214511e-07   1.3415714145814152e-07   1.3508902807095976e-07   1.3194618203077062e-07   1.3295320597921616e-07   1.2959653261777047e-07   1.3067626387911252e-07   1.2711383664602798e-07   1.2826367007082692e-07   1.2450405816306442e-07   1.2572121972296800e-07   1.2177346749094979e-07   1.2305502093461423e-07   1.1892862614173059e-07   1.2027148004288716e-07   1.1597637103034848e-07   1.1737728621097690e-07   1.1292379802335003e-07   1.1437939533397601e-07   1.0977824486280148e-07   1.1128501330125779e-07   1.0654727350659117e-07   1.0810157865544369e-07   1.0323865192766778e-07   1.0483674469018218e-07   9.9860335416050692e-08   1.0149836102944965e-07   9.6420447428640407e-08   9.8094454732917582e-08   9.2927260033115745e-08   9.4633210973149316e-08   8.9389173992789291e-08   9.1122953330648155e-08   8.5814698540684894e-08   8.7572123754895808e-08   8.2212430891467773e-08   8.3989262239184445e-08   7.8591035540611102e-08   8.0382986258497318e-08   7.4959223400707628e-08   7.6761970019925093e-08   7.1325730825210188e-08   7.3134923575608000e-08   6.7699298570256050e-08   6.9510571848639860e-08   6.4088650745127618e-08   6.5897633622442444e-08   6.0502473802206260e-08   6.2304800544117041e-08   5.6949395617031903e-08   5.8740716192778675e-08   5.3437964708924682e-08   5.5213955262836735e-08   4.9976629652236117e-08   5.1733002912842138e-08   4.6573718727793843e-08   4.8306234329326202e-08   4.3237419863750271e-08   4.4941894555191357e-08   3.9975760914035334e-08   4.1648078631012568e-08   3.6796590322033605e-08   3.8432712097405624e-08   3.3707558216076091e-08   3.5303531905172768e-08   3.0716097982318035e-08   3.2268067779446865e-08   2.7829408359420586e-08   2.9333624082648402e-08   2.5054436098176615e-08   2.6507262220091692e-08   2.2397859227926962e-08   2.3795783630466446e-08   1.9866070970076186e-08   2.1205713402393308e-08   1.7465164337433528e-08   1.8743284556386140e-08   1.5200917456657397e-08   1.6414423030286460e-08   1.3078779648921258e-08   1.4224733404114247e-08   1.1103858302661089e-08   1.2179485398991904e-08   9.2809065697913894e-09   1.0283601182553828e-08   7.6143119151937343e-09   8.5416435114375307e-09   6.1080855470255900e-09   6.9578047395201452e-09   4.7658527533252161e-09   5.5358967182943194e-09   3.5908441682280457e-09   4.2793416138020804e-09   2.5858879888174907e-09   3.1911636622364620e-09   1.7534031613988679e-09   2.2739818840887609e-09   1.0953935536142314e-09   1.5300037743807621e-09   6.1344312640799217e-10   9.6101998423254337e-10   3.0871211754880648e-10   5.6840000654067284e-10   1.8193424584587520e-10   3.5308887622201348e-10   2.3341494283580717e-10   3.1560489290800715e-10   4.6303061617654577e-10   4.5603837164167914e-10   8.7022894655328643e-10   7.7405142455547424e-10   1.4540302173512878e-09   1.2688787740631041e-09   2.2130296739159431e-09   1.9393295956185000e-09   3.1454009066837655e-09   2.7837903855656326e-09   4.2489002500724033e-09   3.8002288472339439e-09   5.5208721864835396e-09   4.9861987858202040e-09   6.9582557424241470e-09   6.3388460003626263e-09   8.5575918613094939e-09   7.8549151585057643e-09   1.0315031735193321e-08   9.5307576375745833e-09   1.2226346075324110e-08   1.1362340312985791e-08   1.4286935299201177e-08   1.3345255272872997e-08   1.6491840609574449e-08   1.5474730435445700e-08   1.8835755938634695e-08   1.7745641043591519e-08   2.1313040728729616e-08   2.0152522008886648e-08   2.3917733518610573e-08   2.2689581075329031e-08   2.6643566302673785e-08   2.5350712771177845e-08   2.9483979628349645e-08   2.8129513114955382e-08   3.2432138395507125e-08   3.1019295040524709e-08   3.5480948319579875e-08   3.4013104503832133e-08   3.8623073018809427e-08   3.7103737232609049e-08   4.1850951684445512e-08   4.0283756078505019e-08   4.5156817291260005e-08   4.3545508930052936e-08   4.8532715304521487e-08   4.6881147143073624e-08   5.1970522838274080e-08   5.0282644444224676e-08   5.5461968218746100e-08   5.3741816262035730e-08   5.8998650905924460e-08   5.7250339438974877e-08   6.2572061724887788e-08   6.0799772276850133e-08   6.6173603358454758e-08   6.4381574867218606e-08   6.9794611051674531e-08   6.7987129658153987e-08   7.3426373478136336e-08   7.1607762207254204e-08   7.7060153717871463e-08   7.5234762071224878e-08   8.0687210296297003e-08   7.8859403781552070e-08   8.4298818233477651e-08   8.2472967855801524e-08   8.7886290052842564e-08   8.6066761793707173e-08   9.1440996698885843e-08   8.9632141007547593e-08   9.4954388313259819e-08   9.3160529636334463e-08   9.8418014819260960e-08   9.6643441193686642e-08   1.0182354626502784e-07   1.0007249899938059e-07   1.0516279287641672e-07   1.0343945634560876e-07   1.0842772477118357e-07   1.0673621634905365e-07   1.1161049128685982e-07   1.0995485144107609e-07   1.1470343987590102e-07   1.1308762244888722e-07   1.1769913452226118e-07   1.1612699722175204e-07   1.2059037363505774e-07   1.1906566875714773e-07   1.2337020737624969e-07   1.2189657278333581e-07   1.2603195438024732e-07   1.2461290475562745e-07   1.2856921782521567e-07   1.2720813622544602e-07   1.3097590081717729e-07   1.2967603054255497e-07   1.3324622104947849e-07   1.3201065785230798e-07   1.3537472470225642e-07   1.3420640935164049e-07   1.3735629954782380e-07   1.3625801076895338e-07   1.3918618722992741e-07   1.3816053503486546e-07   1.4085999468639128e-07   1.3990941411252635e-07   1.4237370468640947e-07   1.4150044995752991e-07   1.4372368545492408e-07   1.4292982457911248e-07   1.4490669935754217e-07   1.4419410917481677e-07   1.4591991061899655e-07   1.4529027231062697e-07   1.4676089204546844e-07   1.4621568711573550e-07   1.4742763071260482e-07   1.4696813745275072e-07   1.4791853255827885e-07   1.4754582300168034e-07   1.4823242576053329e-07   1.4794736313942982e-07   1.4836856267582429e-07   1.4817179940009103e-07   1.4797809893645521e-07   1.4780036366046691e-07   1.4774009988331575e-07   1.4765112886587550e-07   1.4732554666025644e-07   1.4732554666025567e-07   1.4673542752031173e-07   1.4682439150235683e-07   1.4597115055511825e-07   1.4614885765235831e-07   1.4503454197027767e-07   1.4530055796683106e-07   1.4392784235599537e-07   1.4428152068624262e-07   1.4265370160042571e-07   1.4309418486222001e-07   1.4121517267335202e-07   1.4174139465125285e-07   1.3961570437322835e-07   1.4022639256663446e-07   1.3785913308748884e-07   1.3855281173764072e-07   1.3594967360162831e-07   1.3672466720980997e-07   1.3389190898654198e-07   1.3474634631523352e-07   1.3169077959271681e-07   1.3262259813978588e-07   1.2935157117973241e-07   1.3035852211492754e-07   1.2687990221083788e-07   1.2795955576263375e-07   1.2428171034403660e-07   1.2543146162375764e-07   1.2156323815227300e-07   1.2278031340152196e-07   1.1873101810779563e-07   1.2001248135397923e-07   1.1579185686657266e-07   1.1713461697052872e-07   1.1275281889102586e-07   1.1415363696970882e-07   1.0962120945053895e-07   1.1107670665681663e-07   1.0640455704054965e-07   1.0791122268141803e-07   1.0311059526302636e-07   1.0466479523653536e-07   9.9747244211621929e-08   1.0134522974218354e-07   9.6322591406550146e-08   9.7960508057668479e-08   9.2844872325347652e-08   9.4518769267721211e-08   8.9322450575959139e-08   9.1028290089004018e-08   8.5763797760558471e-08   8.7497464944068454e-08   8.2177473078148269e-08   8.3934785750812709e-08   7.8572102715389360e-08   8.0348821476329719e-08   7.4956359075266320e-08   7.6748197504203714e-08   7.1338939893649331e-08   7.3141574865152965e-08   6.7728547294101230e-08   6.9537629381103312e-08   6.4133866831509547e-08   6.5945030772772909e-08   6.0563546574817052e-08   6.2372421781423962e-08   5.7026176279676039e-08   5.8828397354897626e-08   5.3530266700783010e-08   5.5321483948147335e-08   5.0084229094168832e-08   5.1860118988254615e-08   4.6696354958533218e-08   4.8452630553343329e-08   4.3374796064698048e-08   4.5107217314422919e-08   4.0127544821124407e-08   4.1831928788460517e-08   3.6962415023044399e-08   3.8634645950424672e-08   3.3887023031388495e-08   3.5523062250771310e-08   3.0908769427021885e-08   3.2504665084485946e-08   2.8034821184425451e-08   2.9586717756000170e-08   2.5272094407931894e-08   2.6776241983702456e-08   2.2627237671930846e-08   2.4080000986115229e-08   2.0106616005364464e-08   2.1504483190540029e-08   1.7716295559011519e-08   1.9055886603382370e-08   1.5462028992665405e-08   1.6740103879925387e-08   1.3349241617201155e-08   1.4562708129466940e-08   1.1383018325146804e-08   1.2528939490065322e-08   9.5680913411739550e-09   1.0643692505267990e-08   7.9088288220094198e-09   8.9115043331824924e-09   6.4092243333083944e-09   7.3365438164599702e-09   5.0728872287994781e-09   5.9226014393328648e-09   3.9030339549221593e-09   4.6730801960942573e-09   2.9024803019132789e-09   3.5909873929159779e-09   2.0736346200292101e-09   2.6789274028620428e-09   1.4184920172034873e-09   1.9390953914441246e-09   9.3862955220411327e-10   1.3732720279456900e-09   6.3520243480009974e-10   9.8281919522452117e-10   5.0894124217861676e-10   7.6867670831174929e-10   5.6015015822597920e-10   7.3136004976949357e-10   7.8870624000132148e-10   8.7095912720680692e-10   1.1940597131325279e-09   1.1871380560105072e-09   1.7752352954032609e-09   1.6791359677562479e-09   2.5308345453941097e-09   2.3457688423974433e-09   3.4590392304620045e-09   3.1854323597866958e-09   4.5576157059904007e-09   4.1961057636847997e-09   5.8239202952907433e-09   5.3753567289042248e-09   7.2549056572684162e-09   6.7203472198925652e-09   8.8471281264332472e-09   8.2278403266488722e-09   1.0596756007593092e-08   9.8942080613918703e-09   1.2499578805254586e-08   1.1715440097368372e-08   1.4551017365438379e-08   1.3687153428544997e-08   1.6746134905496233e-08   1.5804602927040947e-08   1.9079648905375187e-08   1.8062692772800924e-08   2.1545943831561419e-08   2.0455988727923962e-08   2.4139084663133947e-08   2.2978731226148252e-08   2.6852831187365499e-08   2.5624849245897332e-08   2.9680653030127405e-08   2.8387974933318540e-08   3.2615745385334902e-08   3.1261458940401996e-08   3.5651045405070158e-08   3.4238386440815973e-08   3.8779249211201309e-08   3.7311593785141510e-08   4.1992829487203127e-08   4.0473685755185688e-08   4.5284053608089080e-08   4.3717053375876205e-08   4.8645002264478445e-08   4.7033892241812344e-08   5.2067588536044623e-08   5.0416221314164713e-08   5.5543577368343036e-08   5.3855902142832351e-08   5.9064605406088780e-08   5.7344658467250590e-08   6.2622201135009406e-08   6.0874096148874402e-08   6.6207805283678256e-08   6.4435723387059735e-08   6.9812791436453473e-08   6.8020971169785886e-08   7.3428486807360032e-08   7.1621213909786238e-08   7.7046193125168374e-08   7.5227790216385984e-08   8.0657207579232300e-08   7.8832023752996598e-08   8.4252843775612207e-08   8.2425244130036720e-08   8.7824452652852502e-08   8.5998807782667816e-08   9.1363443307104700e-08   8.9544118783310793e-08   9.4861303676314058e-08   9.3052649538596517e-08   9.8309621033731181e-08   9.6515961320877845e-08   1.0170010224106534e-07   9.9925724584790272e-08   1.0502459371273308e-07   1.0327373901987542e-07   1.0827510104286400e-07   1.0655195329093423e-07   1.1144380824782234e-07   1.0975248441849110e-07   1.1452309657776758e-07   1.1286763675255379e-07   1.1750556285195664e-07   1.1588992049400318e-07   1.2038403727338481e-07   1.1881206971886755e-07   1.2315160068000239e-07   1.2162705986195606e-07   1.2580160119061234e-07   1.2432812461768064e-07   1.2832767020538207e-07   1.2690877221717243e-07   1.3072373772226817e-07   1.2936280104246852e-07   1.3298404693217122e-07   1.3168431453980711e-07   1.3510316805756758e-07   1.3386773539593201e-07   1.3707601140083840e-07   1.3590781894300705e-07   1.3889783957046303e-07   1.3779966575927327e-07   1.4056427885505789e-07   1.3953873343457846e-07   1.4207132971677482e-07   1.4112084747139934e-07   1.4341537637750337e-07   1.4254221129376588e-07   1.4459319547245740e-07   1.4379941533765393e-07   1.4560196374656148e-07   1.4488944519732413e-07   1.4643926476866309e-07   1.4580968880153771e-07   1.4710309463583877e-07   1.4655794259113197e-07   1.4759186663419930e-07   1.4713241666381601e-07   1.4790441482344593e-07   1.4753173885390001e-07   1.4803999660532329e-07   1.4775495780902331e-07   1.4747230765814003e-07   1.4720624976522026e-07   1.4723602484378028e-07   1.4705830381797880e-07   1.4682439150235600e-07   1.4673542752030919e-07   1.4623838885653406e-07   1.4623838885653400e-07   1.4547941577722287e-07   1.4556837290581383e-07   1.4454928642593606e-07   1.4472698000378783e-07   1.4345022643621583e-07   1.4371622244196408e-07   1.4218486785331758e-07   1.4253851992364552e-07   1.4075624297236955e-07   1.4119669391568067e-07   1.3916777714976202e-07   1.3969396096962103e-07   1.3742328063344738e-07   1.3803392505683850e-07   1.3552693944585891e-07   1.3622056895010204e-07   1.3348330534927994e-07   1.3425824468021232e-07   1.3129728492195395e-07   1.3215166309483950e-07   1.28974127