<?xml version="1.0"?>
<VTKFile type="UnstructuredGrid"  version="0.1"  >
<UnstructuredGrid>
<Piece  NumberOfPoints="16641" NumberOfCells="32768">
<Points>
<DataArray  type="Float64"  NumberOfComponents="3"  format="ascii">0 0 0  0.0078125 0 0  0.015625 0 0  0.0234375 0 0  0.03125 0 0  0.0390625 0 0  0.046875 0 0  0.0546875 0 0  0.0625 0 0  0.0703125 0 0  0.078125 0 0  0.0859375 0 0  0.09375 0 0  0.1015625 0 0  0.109375 0 0  0.1171875 0 0  0.125 0 0  0.1328125 0 0  0.140625 0 0  0.1484375 0 0  0.15625 0 0  0.1640625 0 0  0.171875 0 0  0.1796875 0 0  0.1875 0 0  0.1953125 0 0  0.203125 0 0  0.2109375 0 0  0.21875 0 0  0.2265625 0 0  0.234375 0 0  0.2421875 0 0  0.25 0 0  0.2578125 0 0  0.265625 0 0  0.2734375 0 0  0.28125 0 0  0.2890625 0 0  0.296875 0 0  0.3046875 0 0  0.3125 0 0  0.3203125 0 0  0.328125 0 0  0.3359375 0 0  0.34375 0 0  0.3515625 0 0  0.359375 0 0  0.3671875 0 0  0.375 0 0  0.3828125 0 0  0.390625 0 0  0.3984375 0 0  0.40625 0 0  0.4140625 0 0  0.421875 0 0  0.4296875 0 0  0.4375 0 0  0.4453125 0 0  0.453125 0 0  0.4609375 0 0  0.46875 0 0  0.4765625 0 0  0.484375 0 0  0.4921875 0 0  0.5 0 0  0.5078125 0 0  0.515625 0 0  0.5234375 0 0  0.53125 0 0  0.5390625 0 0  0.546875 0 0  0.5546875 0 0  0.5625 0 0  0.5703125 0 0  0.578125 0 0  0.5859375 0 0  0.59375 0 0  0.6015625 0 0  0.609375 0 0  0.6171875 0 0  0.625 0 0  0.6328125 0 0  0.640625 0 0  0.6484375 0 0  0.65625 0 0  0.6640625 0 0  0.671875 0 0  0.6796875 0 0  0.6875 0 0  0.6953125 0 0  0.703125 0 0  0.7109375 0 0  0.71875 0 0  0.7265625 0 0  0.734375 0 0  0.7421875 0 0  0.75 0 0  0.7578125 0 0  0.765625 0 0  0.7734375 0 0  0.78125 0 0  0.7890625 0 0  0.796875 0 0  0.8046875 0 0  0.8125 0 0  0.8203125 0 0  0.828125 0 0  0.8359375 0 0  0.84375 0 0  0.8515625 0 0  0.859375 0 0  0.8671875 0 0  0.875 0 0  0.8828125 0 0  0.890625 0 0  0.8984375 0 0  0.90625 0 0  0.9140625 0 0  0.921875 0 0  0.9296875 0 0  0.9375 0 0  0.9453125 0 0  0.953125 0 0  0.9609375 0 0  0.96875 0 0  0.9765625 0 0  0.984375 0 0  0.9921875 0 0  1 0 0  0 0.0078125 0  0.0078125 0.0078125 0  0.015625 0.0078125 0  0.0234375 0.0078125 0  0.03125 0.0078125 0  0.0390625 0.0078125 0  0.046875 0.0078125 0  0.0546875 0.0078125 0  0.0625 0.0078125 0  0.0703125 0.0078125 0  0.078125 0.0078125 0  0.0859375 0.0078125 0  0.09375 0.0078125 0  0.1015625 0.0078125 0  0.109375 0.0078125 0  0.1171875 0.0078125 0  0.125 0.0078125 0  0.1328125 0.0078125 0  0.140625 0.0078125 0  0.1484375 0.0078125 0  0.15625 0.0078125 0  0.1640625 0.0078125 0  0.171875 0.0078125 0  0.1796875 0.0078125 0  0.1875 0.0078125 0  0.1953125 0.0078125 0  0.203125 0.0078125 0  0.2109375 0.0078125 0  0.21875 0.0078125 0  0.2265625 0.0078125 0  0.234375 0.0078125 0  0.2421875 0.0078125 0  0.25 0.0078125 0  0.2578125 0.0078125 0  0.265625 0.0078125 0  0.2734375 0.0078125 0  0.28125 0.0078125 0  0.2890625 0.0078125 0  0.296875 0.0078125 0  0.3046875 0.0078125 0  0.3125 0.0078125 0  0.3203125 0.0078125 0  0.328125 0.0078125 0  0.3359375 0.0078125 0  0.34375 0.0078125 0  0.3515625 0.0078125 0  0.359375 0.0078125 0  0.3671875 0.0078125 0  0.375 0.0078125 0  0.3828125 0.0078125 0  0.390625 0.0078125 0  0.3984375 0.0078125 0  0.40625 0.0078125 0  0.4140625 0.0078125 0  0.421875 0.0078125 0  0.4296875 0.0078125 0  0.4375 0.0078125 0  0.4453125 0.0078125 0  0.453125 0.0078125 0  0.4609375 0.0078125 0  0.46875 0.0078125 0  0.4765625 0.0078125 0  0.484375 0.0078125 0  0.4921875 0.0078125 0  0.5 0.0078125 0  0.5078125 0.0078125 0  0.515625 0.0078125 0  0.5234375 0.0078125 0  0.53125 0.0078125 0  0.5390625 0.0078125 0  0.546875 0.0078125 0  0.5546875 0.0078125 0  0.5625 0.0078125 0  0.5703125 0.0078125 0  0.578125 0.0078125 0  0.5859375 0.0078125 0  0.59375 0.0078125 0  0.6015625 0.0078125 0  0.609375 0.0078125 0  0.6171875 0.0078125 0  0.625 0.0078125 0  0.6328125 0.0078125 0  0.640625 0.0078125 0  0.6484375 0.0078125 0  0.65625 0.0078125 0  0.6640625 0.0078125 0  0.671875 0.0078125 0  0.6796875 0.0078125 0  0.6875 0.0078125 0  0.6953125 0.0078125 0  0.703125 0.0078125 0  0.7109375 0.0078125 0  0.71875 0.0078125 0  0.7265625 0.0078125 0  0.734375 0.0078125 0  0.7421875 0.0078125 0  0.75 0.0078125 0  0.7578125 0.0078125 0  0.765625 0.0078125 0  0.7734375 0.0078125 0  0.78125 0.0078125 0  0.7890625 0.0078125 0  0.796875 0.0078125 0  0.8046875 0.0078125 0  0.8125 0.0078125 0  0.8203125 0.0078125 0  0.828125 0.0078125 0  0.8359375 0.0078125 0  0.84375 0.0078125 0  0.8515625 0.0078125 0  0.859375 0.0078125 0  0.8671875 0.0078125 0  0.875 0.0078125 0  0.8828125 0.0078125 0  0.890625 0.0078125 0  0.8984375 0.0078125 0  0.90625 0.0078125 0  0.9140625 0.0078125 0  0.921875 0.0078125 0  0.9296875 0.0078125 0  0.9375 0.0078125 0  0.9453125 0.0078125 0  0.953125 0.0078125 0  0.9609375 0.0078125 0  0.96875 0.0078125 0  0.9765625 0.0078125 0  0.984375 0.0078125 0  0.9921875 0.0078125 0  1 0.0078125 0  0 0.015625 0  0.0078125 0.015625 0  0.015625 0.015625 0  0.0234375 0.015625 0  0.03125 0.015625 0  0.0390625 0.015625 0  0.046875 0.015625 0  0.0546875 0.015625 0  0.0625 0.015625 0  0.0703125 0.015625 0  0.078125 0.015625 0  0.0859375 0.015625 0  0.09375 0.015625 0  0.1015625 0.015625 0  0.109375 0.015625 0  0.1171875 0.015625 0  0.125 0.015625 0  0.1328125 0.015625 0  0.140625 0.015625 0  0.1484375 0.015625 0  0.15625 0.015625 0  0.1640625 0.015625 0  0.171875 0.015625 0  0.1796875 0.015625 0  0.1875 0.015625 0  0.1953125 0.015625 0  0.203125 0.015625 0  0.2109375 0.015625 0  0.21875 0.015625 0  0.2265625 0.015625 0  0.234375 0.015625 0  0.2421875 0.015625 0  0.25 0.015625 0  0.2578125 0.015625 0  0.265625 0.015625 0  0.2734375 0.015625 0  0.28125 0.015625 0  0.2890625 0.015625 0  0.296875 0.015625 0  0.3046875 0.015625 0  0.3125 0.015625 0  0.3203125 0.015625 0  0.328125 0.015625 0  0.3359375 0.015625 0  0.34375 0.015625 0  0.3515625 0.015625 0  0.359375 0.015625 0  0.3671875 0.015625 0  0.375 0.015625 0  0.3828125 0.015625 0  0.390625 0.015625 0  0.3984375 0.015625 0  0.40625 0.015625 0  0.4140625 0.015625 0  0.421875 0.015625 0  0.4296875 0.015625 0  0.4375 0.015625 0  0.4453125 0.015625 0  0.453125 0.015625 0  0.4609375 0.015625 0  0.46875 0.015625 0  0.4765625 0.015625 0  0.484375 0.015625 0  0.4921875 0.015625 0  0.5 0.015625 0  0.5078125 0.015625 0  0.515625 0.015625 0  0.5234375 0.015625 0  0.53125 0.015625 0  0.5390625 0.015625 0  0.546875 0.015625 0  0.5546875 0.015625 0  0.5625 0.015625 0  0.5703125 0.015625 0  0.578125 0.015625 0  0.5859375 0.015625 0  0.59375 0.015625 0  0.6015625 0.015625 0  0.609375 0.015625 0  0.6171875 0.015625 0  0.625 0.015625 0  0.6328125 0.015625 0  0.640625 0.015625 0  0.6484375 0.015625 0  0.65625 0.015625 0  0.6640625 0.015625 0  0.671875 0.015625 0  0.6796875 0.015625 0  0.6875 0.015625 0  0.6953125 0.015625 0  0.703125 0.015625 0  0.7109375 0.015625 0  0.71875 0.015625 0  0.7265625 0.015625 0  0.734375 0.015625 0  0.7421875 0.015625 0  0.75 0.015625 0  0.7578125 0.015625 0  0.765625 0.015625 0  0.7734375 0.015625 0  0.78125 0.015625 0  0.7890625 0.015625 0  0.796875 0.015625 0  0.8046875 0.015625 0  0.8125 0.015625 0  0.8203125 0.015625 0  0.828125 0.015625 0  0.8359375 0.015625 0  0.84375 0.015625 0  0.8515625 0.015625 0  0.859375 0.015625 0  0.8671875 0.015625 0  0.875 0.015625 0  0.8828125 0.015625 0  0.890625 0.015625 0  0.8984375 0.015625 0  0.90625 0.015625 0  0.9140625 0.015625 0  0.921875 0.015625 0  0.9296875 0.015625 0  0.9375 0.015625 0  0.9453125 0.015625 0  0.953125 0.015625 0  0.9609375 0.015625 0  0.96875 0.015625 0  0.9765625 0.015625 0  0.984375 0.015625 0  0.9921875 0.015625 0  1 0.015625 0  0 0.0234375 0  0.0078125 0.0234375 0  0.015625 0.0234375 0  0.0234375 0.0234375 0  0.03125 0.0234375 0  0.0390625 0.0234375 0  0.046875 0.0234375 0  0.0546875 0.0234375 0  0.0625 0.0234375 0  0.0703125 0.0234375 0  0.078125 0.0234375 0  0.0859375 0.0234375 0  0.09375 0.0234375 0  0.1015625 0.0234375 0  0.109375 0.0234375 0  0.1171875 0.0234375 0  0.125 0.0234375 0  0.1328125 0.0234375 0  0.140625 0.0234375 0  0.1484375 0.0234375 0  0.15625 0.0234375 0  0.1640625 0.0234375 0  0.171875 0.0234375 0  0.1796875 0.0234375 0  0.1875 0.0234375 0  0.1953125 0.0234375 0  0.203125 0.0234375 0  0.2109375 0.0234375 0  0.21875 0.0234375 0  0.2265625 0.0234375 0  0.234375 0.0234375 0  0.2421875 0.0234375 0  0.25 0.0234375 0  0.2578125 0.0234375 0  0.265625 0.0234375 0  0.2734375 0.0234375 0  0.28125 0.0234375 0  0.2890625 0.0234375 0  0.296875 0.0234375 0  0.3046875 0.0234375 0  0.3125 0.0234375 0  0.3203125 0.0234375 0  0.328125 0.0234375 0  0.3359375 0.0234375 0  0.34375 0.0234375 0  0.3515625 0.0234375 0  0.359375 0.0234375 0  0.3671875 0.0234375 0  0.375 0.0234375 0  0.3828125 0.0234375 0  0.390625 0.0234375 0  0.3984375 0.0234375 0  0.40625 0.0234375 0  0.4140625 0.0234375 0  0.421875 0.0234375 0  0.4296875 0.0234375 0  0.4375 0.0234375 0  0.4453125 0.0234375 0  0.453125 0.0234375 0  0.4609375 0.0234375 0  0.46875 0.0234375 0  0.4765625 0.0234375 0  0.484375 0.0234375 0  0.4921875 0.0234375 0  0.5 0.0234375 0  0.5078125 0.0234375 0  0.515625 0.0234375 0  0.5234375 0.0234375 0  0.53125 0.0234375 0  0.5390625 0.0234375 0  0.546875 0.0234375 0  0.5546875 0.0234375 0  0.5625 0.0234375 0  0.5703125 0.0234375 0  0.578125 0.0234375 0  0.5859375 0.0234375 0  0.59375 0.0234375 0  0.6015625 0.0234375 0  0.609375 0.0234375 0  0.6171875 0.0234375 0  0.625 0.0234375 0  0.6328125 0.0234375 0  0.640625 0.0234375 0  0.6484375 0.0234375 0  0.65625 0.0234375 0  0.6640625 0.0234375 0  0.671875 0.0234375 0  0.6796875 0.0234375 0  0.6875 0.0234375 0  0.6953125 0.0234375 0  0.703125 0.0234375 0  0.7109375 0.0234375 0  0.71875 0.0234375 0  0.7265625 0.0234375 0  0.734375 0.0234375 0  0.7421875 0.0234375 0  0.75 0.0234375 0  0.7578125 0.0234375 0  0.765625 0.0234375 0  0.7734375 0.0234375 0  0.78125 0.0234375 0  0.7890625 0.0234375 0  0.796875 0.0234375 0  0.8046875 0.0234375 0  0.8125 0.0234375 0  0.8203125 0.0234375 0  0.828125 0.0234375 0  0.8359375 0.0234375 0  0.84375 0.0234375 0  0.8515625 0.0234375 0  0.859375 0.0234375 0  0.8671
[...]
<CellData  Scalars="f_130653"> 
<DataArray  type="Float64"  Name="f_130653"  format="ascii">5.7439008137756715e-13   5.7439008137574244e-13   1.0023545588777420e-12   1.3009803875977376e-12   1.5278914364883463e-12   2.0601919545104008e-12   2.1474218179760403e-12   2.9566513838228824e-12   2.8576268322462520e-12   3.9846503176805540e-12   3.6552875448548821e-12   5.1391129300383769e-12   4.5371857527113982e-12   6.4151434625177113e-12   5.5000731599437472e-12   7.8078861387739260e-12   6.5406573682555358e-12   9.3124697985079670e-12   7.6555921747526877e-12   1.0923977650103118e-11   8.8414702210610887e-12   1.2637427554468059e-11   1.0094817776530036e-11   1.4447758719483568e-11   1.1412091509139673e-11   1.6349823102079569e-11   1.2789677020329306e-11   1.8338380489990921e-11   1.4223888897250555e-11   2.0408096521015900e-11   1.5710972052411452e-11   2.2553543074939066e-11   1.7247104153515539e-11   2.4769200603677205e-11   1.8828398978480064e-11   2.7049462061905611e-11   2.0450910559947524e-11   2.9388638171821405e-11   2.2110638008752161e-11   3.1780963814530228e-11   2.3803530922135932e-11   3.4220605376522229e-11   2.5525495299027263e-11   3.6701668912341513e-11   2.7272399895554834e-11   3.9218209008709212e-11   2.9040082962377900e-11   4.1764238250248221e-11   3.0824359312533023e-11   4.4333737202233151e-11   3.2621027673890737e-11   4.6920664834862930e-11   3.4425878284165663e-11   4.9518969322590054e-11   3.6234700688953601e-11   5.2122599155161561e-11   3.8043291707597436e-11   5.4725514506132045e-11   3.9847463533099435e-11   5.7321698806747558e-11   4.1643051932095388e-11   5.9905170472996990e-11   4.3425924515826119e-11   6.2469994742839431e-11   4.5191989050744615e-11   6.5010295575466540e-11   4.6937201780950142e-11   6.7520267572600937e-11   4.8657575735265691e-11   6.9994187878940240e-11   5.0349188991095442e-11   7.2426428025068673e-11   5.2008192867807097e-11   7.4811465667458367e-11   5.3630820027105579e-11   7.7143896197714485e-11   5.5213392453196957e-11   7.9418444176572302e-11   5.6752329290053290e-11   8.1629974564924477e-11   5.8244154512642591e-11   8.3773503711877889e-11   5.9685504408371112e-11   8.5844210072843979e-11   6.1073134847874476e-11   8.7837444619383125e-11   6.2403928325196912e-11   8.9748740919731948e-11   6.3674900744255042e-11   9.1573824850839772e-11   6.4883207935512072e-11   9.3308623921433448e-11   6.6026151882659472e-11   9.4949276176999682e-11   6.7101186639946658e-11   9.6492138658010533e-11   6.8105923928119631e-11   9.7933795393921029e-11   6.9038138387716458e-11   9.9271064904629795e-11   6.9895772479088278e-11   1.0050100718979544e-10   7.0676941011929954e-11   1.0162093018680069e-10   7.1379935294146833e-11   1.0262839567804400e-10   7.2003226887090743e-11   1.0352122463117190e-10   7.2545470955885399e-11   1.0429750195759125e-10   7.3005509204613168e-11   1.0495558067076137e-10   7.3382372391085238e-11   1.0549408543988014e-10   7.3675282409337216e-11   1.0591191552267344e-10   7.3883653935518541e-11   1.0620824706599287e-10   7.4007095633608634e-11   1.0638253477767176e-10   7.4045410912038091e-11   1.0643451294792699e-10   7.3998598234267199e-11   1.0636419583169498e-10   7.3866850976885314e-11   1.0617187737910757e-10   7.3650556836902515e-11   1.0585813031833487e-10   7.3350296787699747e-11   1.0542380458861374e-10   7.2966843586722156e-11   1.0487002513092923e-10   7.2501159833807582e-11   1.0419818903020245e-10   7.1954395593358708e-11   1.0340996203368763e-10   7.1327885571671631e-11   1.0250727442885805e-10   7.0623145868420785e-11   1.0149231630997575e-10   6.9841870302262674e-11   1.0036753223450556e-10   6.8985926320889842e-11   9.9135615282847523e-11   6.8057350505581661e-11   9.7799500534401440e-11   6.7058343680135848e-11   9.6362357980572133e-11   6.5991265634934400e-11   9.4827584882542775e-11   6.4858629478771182e-11   9.3198797597948078e-11   6.3663095633182189e-11   9.1479822894695292e-11   6.2407465482097506e-11   8.9674688772059459e-11   6.1094674690611506e-11   8.7787614809173389e-11   5.9727786210888830e-11   8.5823002066342504e-11   5.8309982991179838e-11   8.3785422561970995e-11   5.6844560404590041e-11   8.1679608351760522e-11   5.5334918414022734e-11   7.9510440231118891e-11   5.3784553496751406e-11   7.7282936096428831e-11   5.2197050341129370e-11   7.5002238982912044e-11   5.0576073338953718e-11   7.2673604815579759e-11   4.8925357893238721e-11   7.0302389896555431e-11   4.7248701559581828e-11   6.7894038163435731e-11   4.5549955043118386e-11   6.5454068242405679e-11   4.3833013070473287e-11   6.2988060332751650e-11   4.2101805160218826e-11   6.0501642948297667e-11   4.0360286307626809e-11   5.8000479549773469e-11   3.8612427609548523e-11   5.5490255095414165e-11   3.6862206845747964e-11   5.2976662543983471e-11   3.5113599040073817e-11   5.0465389336027799e-11   3.3370567018462252e-11   4.7962103887970549e-11   3.1637051984298326e-11   4.5472442122422375e-11   2.9916964129029096e-11   4.3001994067562440e-11   2.8214173295621262e-11   4.0556290550521918e-11   2.6532499710762334e-11   3.8140790011004876e-11   2.4875704800179965e-11   3.5760865459044840e-11   2.3247482100673639e-11   3.3421791599793476e-11   2.1651448279073684e-11   3.1128732144866679e-11   2.0091134265896685e-11   2.8886727327221917e-11   1.8569976508403205e-11   2.6700681632484903e-11   1.7091308343231656e-11   2.4575351756727574e-11   1.5658351483300331e-11   2.2515334792661294e-11   1.4274207606426578e-11   2.0525056641280932e-11   1.2941850024515179e-11   1.8608760635265785e-11   1.1664115399819839e-11   1.6770496350345850e-11   1.0443695458606133e-11   1.5014108563459318e-11   9.2831286299821038e-12   1.3343226296331450e-11   8.1847915072409092e-12   1.1761251853816691e-11   7.1508899843352082e-12   1.0271349726127321e-11   6.1834498552184492e-12   8.8764351651856027e-12   5.2843065664694178e-12   7.5791621603896315e-12   4.4550936628143555e-12   6.3819104100918192e-12   3.6972292238906465e-12   5.2867706856950686e-12   3.0118991896439609e-12   4.2955276662003265e-12   2.4000357734903032e-12   3.4096387922309566e-12   1.8622878850428537e-12   2.6302067782529436e-12   1.3989779915275547e-12   1.9579417843608547e-12   1.0100346060434730e-12   1.3931061510582073e-12   6.9487745787610350e-13   9.3542837440196867e-13   4.5220064238096141e-13   5.8395950458177157e-13   2.7950204308235204e-13   3.3681311127990156e-13   1.7184056212207345e-13   1.9064729193546727e-13   9.7632664631671884e-14   1.3955360128392308e-13   1.3009803875923484e-12   1.0023545588648830e-12   1.9867045953116124e-12   1.9867045953019569e-12   2.8208947980786453e-12   2.8122806194761947e-12   3.7922234122962011e-12   3.7790058116114324e-12   4.8934665903769441e-12   4.8774735759861316e-12   6.1187323240234194e-12   6.1008190338249239e-12   7.4626913977405743e-12   7.4432279071011917e-12   8.9202510392720292e-12   8.8993615233450332e-12   1.0486398116393459e-11   1.0464077935617906e-11   1.2156119533187702e-11   1.2132293609389177e-11   1.3924359476493054e-11   1.3898912620834457e-11   1.5785995490319618e-11   1.5758789014520113e-11   1.7735825062712144e-11   1.7706706419494929e-11   1.9768558637030768e-11   1.9737367362610903e-11   2.1878816873470478e-11   2.1845388480889748e-11   2.4061130913441118e-11   2.4025299601407849e-11   2.6309944877035700e-11   2.6271545524902748e-11   2.8619620088573357e-11   2.8578489803123370e-11   3.0984440681961796e-11   3.0940420048809429e-11   3.3398620332745835e-11   3.3351554465784445e-11   3.5856309925338266e-11   3.5806049369491851e-11   3.8351606008331808e-11   3.8298007530770307e-11   4.0878559915565643e-11   4.0821487208233872e-11   4.3431187455329277e-11   4.3370511762907159e-11   4.6003479081059746e-11   4.5939079764075750e-11   4.8589410470675545e-11   4.8521175510257583e-11   5.1182953446279621e-11   5.1110779895178189e-11   5.3778087177955225e-11   5.3701881560926670e-11   5.6368809613950588e-11   5.6288488279761821e-11   5.8949149086223220e-11   5.8864638513280685e-11   6.1513176044849772e-11   6.1424413101365221e-11   6.4055014874003727e-11   6.3961947035384432e-11   6.6568855746810194e-11   6.6471441269359750e-11   6.9048966477379833e-11   6.8947174531104472e-11   7.1489704329086156e-11   7.1383515088820247e-11   7.3885527739567257e-11   7.3774932437911534e-11   7.6231007928213329e-11   7.6116008868542035e-11   7.8520840344272478e-11   7.8401450877388491e-11   8.0749855926453924e-11   8.0626100388869310e-11   8.2913032135433655e-11   8.2784945754517619e-11   8.5005503727903915e-11   8.4873132490485945e-11   8.7022573239371638e-11   8.6885973729050618e-11   8.8959721148343259e-11   8.8818960349173284e-11   9.0812615687667941e-11   9.0667770758637972e-11   9.2577122277649400e-11   9.2428280296981221e-11   9.4249312554033581e-11   9.4096570235610934e-11   9.5825472961483302e-11   9.5668936344693448e-11   9.7302112894890807e-11   9.7141897009681932e-11   9.8675972356895725e-11   9.8512200863311830e-11   9.9944029118030827e-11   9.9776833926360671e-11   1.0110350534901696e-10   1.0093302621527635e-10   1.0215187372044148e-10   1.0197825782603770e-10   1.0308686293723447e-10   1.0291026444883024e-10   1.0390646270258176e-10   1.0372704231577846e-10   1.0460892809067796e-10   1.0442685256058148e-10   1.0519278332186182e-10   1.0500822497859012e-10   1.0565682492020206e-10   1.0546996117392582e-10   1.0600012425148241e-10   1.0581113708761222e-10   1.0622202943070280e-10   1.0603110489585941e-10   1.0632216659027902e-10   1.0612949427320957e-10   1.0630044050973675e-10   1.0610621301547820e-10   1.0615703459863072e-10   1.0596144702034377e-10   1.0589241023366342e-10   1.0569565962189748e-10   1.0550730545025653e-10   1.0530959028219131e-10   1.0500273299038472e-10   1.0480425264014493e-10   1.0437997770754136e-10   1.0418093192026679e-10   1.0364059334270821e-10   1.0344118171059434e-10   1.0278639866287118e-10   1.0258682011022782e-10   1.0181947298678442e-10   1.0161992525992818e-10   1.0074215109842533e-10   1.0054283026559465e-10   9.9557017561461656e-11   9.9358117523227460e-11   9.8266900447288618e-11   9.8068612458232511e-11   9.6874864495227812e-11   9.6677376698089895e-11   9.5384203715820687e-11   9.5187700692020981e-11   9.3798433455478056e-11   9.3603095789908890e-11   9.2121281944306722e-11   9.1927285807825209e-11   9.0356681344248636e-11   9.0164198094786635e-11   8.8508758318950951e-11   8.8317954122367820e-11   8.6581824148358080e-11   8.6392859620099165e-11   8.4580364412970965e-11   8.4393394282730786e-11   8.2509028269079387e-11   8.2324201067959577e-11   8.0372617341871622e-11   8.0190075114997125e-11   7.8176074267012678e-11   7.7995952311589894e-11   7.5924470897152457e-11   7.5746897527925985e-11   7.3622996215236012e-11   7.3448092557534854e-11   7.1276943972157700e-11   7.1104823786396050e-11   6.8891700084028671e-11   6.8722469618099152e-11   6.6472729814469195e-11   6.6306487691192995e-11   6.4025564777047091e-11   6.3862401912354556e-11   6.1555789782825893e-11   6.1395789341556350e-11   5.9069029565946013e-11   5.8912266950508882e-11   5.6570935419593183e-11   5.6417478300765561e-11   5.4067171767883035e-11   5.3917080151645820e-11   5.1563402707356961e-11   5.1416729047001805e-11   4.9065278548029657e-11   4.8922067897448644e-11   4.6578422379284957e-11   4.6438712595804194e-11   4.4108416693353918e-11   4.3972238688784181e-11   4.1660790090728206e-11   4.1528168136694420e-11   3.9241004095458520e-11   3.9111956186444920e-11   3.6854440103408548e-11   3.6728978382586430e-11   3.4506386487277804e-11   3.4384517741144870e-11   3.2202025879198281e-11   3.2083752108913490e-11   2.9946422647277250e-11   2.9831741724859216e-11   2.7744510581763477e-11   2.7633417003361294e-11   2.5601080801040543e-11   2.5493566550330058e-11   2.3520769881381917e-11   2.3416825421160722e-11   2.1508048210023771e-11   2.1407663623770149e-11   1.9567208550432250e-11   1.9470374862813926e-11   1.7702354800212169e-11   1.7609065513240206e-11   1.5917390905324453e-11   1.5827643798903361e-11   1.4216009876992730e-11   1.4129809138776560e-11   1.2601682830695400e-11   1.2519041602678157e-11   1.1077647931146776e-11   1.0998591393573119e-11   9.6468990761024648e-12   9.5714682373321926e-12   8.3121740781706564e-12   8.2404305115459907e-12   7.0759419944827132e-12   7.0079738747896614e-12   5.9403890900386033e-12   5.8763190581024922e-12   4.9074026627846497e-12   4.8473983336950354e-12   3.9785515487802385e-12   3.9228399610017064e-12   3.1550614514930098e-12   3.1039495918019863e-12   2.4377821019671738e-12   2.3916871471458156e-12   1.8271412876844384e-12   1.7866370115654964e-12   1.3230773097461131e-12   1.2889685276842670e-12   9.2493522789955720e-13   8.9838304309078036e-13   6.3130160512194876e-13   6.1404509700431179e-13   4.3973930231528773e-13   4.3450941727662245e-13   3.4643660471019278e-13   3.5774875880971768e-13   2.7596504772279955e-13   3.8207271072481341e-13   2.0601919544844981e-12   1.5278914364521135e-12   2.8122806194633435e-12   2.8208947980378784e-12   3.7143891184614707e-12   3.7143891184505558e-12   4.7533862254690296e-12   4.7476626154487283e-12   5.9208098430622201e-12   5.9109825587090896e-12   7.2100102521006797e-12   7.1970534554014380e-12   8.6151627960008025e-12   8.5996607473681336e-12   1.0130840348777759e-11   1.0113124036897267e-11   1.1751798985455660e-11   1.1732033953665374e-11   1.3472860495330333e-11   1.3451104573971026e-11   1.5288845732471197e-11   1.5265086368529054e-11   1.7194536318100433e-11   1.7168714637205468e-11   1.9184652784898748e-11   1.9156679291196401e-11   2.1253842671372406e-11   2.1223607719061373e-11   2.3396674933565336e-11   2.3364055904300269e-11   2.5607638569329464e-11   2.5572504941068435e-11   2.7881144186666013e-11   2.7843361224715516e-11   3.0211527719132673e-11   3.0170959246709825e-11   3.2593055769200796e-11   3.2549566305879314e-11   3.5019932220043037e-11   3.4973388677485240e-11   3.7486305863530293e-11   3.7436578919847780e-11   3.9986278857386462e-11   3.9933244093187192e-11   4.2513915867047689e-11   4.2457454719443361e-11   4.5063253776218436e-11   4.5003254348876300e-11   4.7628311873840522e-11   4.7564669630492542e-11   5.0203102434788618e-11   5.0135720795796287e-11   5.2781641626889440e-11   5.2710432482163762e-11   5.5357960681035442e-11   5.5282844830672687e-11   5.7926117268361083e-11   5.7847024797574824e-11   6.0480207031929072e-11   6.0397077627342157e-11   6.3014375227440466e-11   6.2927158438196458e-11   6.5522828422371696e-11   6.5431483871274739e-11   6.7999846215233571e-11   6.7904343760746428e-11   7.0439792930065170e-11   7.0340112784538896e-11   7.2837129249036845e-11   7.2733262052393904e-11   7.5186423740695736e-11   7.5078370594119596e-11   7.7482364252901019e-11   7.7370136712576898e-11   7.9719769128195934e-11   7.9603389161951779e-11   8.1893598214443482e-11   8.1773098120878343e-11   8.3998963628368072e-11   8.3874385923386611e-11   8.6031140248750734e-11   8.5902537517194697e-11   8.7985575900699724e-11   8.7853010617492051e-11   8.9857901209045353e-11   8.9721445529537404e-11   9.1643939082386218e-11   9.1503674604068942e-11   9.3339713810975388e-11   9.3195731308266455e-11   9.4941459742314007e-11   9.4793858874238537e-11   9.6445629518130805e-11   9.6294518512653710e-11   9.7848901842098462e-11   9.7694397157812334e-11   9.9148188762332886e-11   9.8990414726561593e-11   1.0034064243911796e-10   1.0017973087020535e-10   1.0142366139291401e-10   1.0125975119850529e-10   1.0239489619623015e-10   1.0222813295997509e-10   1.0325225460908522e-10   1.0308279015871754e-10   1.0399390613385291e-10   1.0382189809595722e-10   1.0461828597815271e-10   1.0444389732172139e-10   1.0512409841582741e-10   1.0494749698359424e-10   1.0551031953410062e-10   1.0533167756586879e-10   1.0577619935693702e-10   1.0559569300470593e-10   1.0592126334351303e-10   1.0573907218043146e-10   1.0594531324589085e-10   1.0576161977124136e-10   1.0584842733469619e-10   1.0566341647482324e-10   1.0563095998040229e-10   1.0544481858870357e-10   1.0529354059597358e-10   1.0510645695347334e-10   1.0483707193882124e-10   1.0464923525496117e-10   1.0426272777774020e-10   1.0407432769536414e-10   1.0357194992604046e-10   1.0338317603061555e-10   1.0276644465092477e-10   1.0257748598414169e-10   1.0184817846143302e-10   1.0165922304483535e-10   1.0081937329141983e-10   1.0063060765603018e-10   9.9682501082717739e-11   9.9494109810464001e-11   9.8440277780477371e-11   9.8252443057057553e-11   9.7095656760255012e-11   9.6908557939892752e-11   9.5651821698708489e-11   9.5465634883164643e-11   9.4112178899303979e-11   9.3927076533287294e-11   9.2480349102522705e-11   9.2296499584553891e-11   9.0760158790813054e-11   9.0577726102388821e-11   8.8955631011220667e-11   8.8774774365295777e-11   8.7070975737838867e-11   8.6891849247508955e-11   8.5110579800039300e-11   8.4933332167723763e-11   8.3078996393674616e-11   8.2903770624816793e-11   8.0980934207227818e-11   8.0807867345732047e-11   7.8821246183624300e-11   7.8650469073370688e-11   7.6604917947259618e-11   7.6436555019345368e-11   7.4337055923458269e-11   7.4171225011349568e-11   7.2022875178830903e-11   7.1859687360236127e-11   6.9667687008215900e-11   6.9507246478891745e-11   6.7276886303005679e-11   6.7119290278887912e-11   6.4855938725305388e-11   6.4701277379410558e-11   6.2410367722545412e-11   6.2258724153273388e-11   5.9945741406223372e-11   5.9797191643019360e-11   5.7467659337104795e-11   5.7322272380140798e-11   5.4981739229344610e-11   5.4839577131205886e-11   5.2493603623859511e-11   5.2354721608566648e-11   5.0008866543297068e-11   4.9873313171659737e-11   4.7533120170066338e-11   4.7400937547785772e-11   4.5071921569034633e-11   4.4943145606045296e-11   4.2630779487618586e-11   4.2505440208470409e-11   4.0215141257074504e-11   4.0093263168315309e-11   3.7830379822091196e-11   3.7711982341918233e-11   3.5481780923103174e-11   3.5366878878478119e-11   3.3174530454069124e-11   3.3063134653208916e-11   3.0913702014400540e-11   3.0805819903927733e-11   2.8704244674947271e-11   2.8599881091913491e-11   2.6550970970195939e-11   2.6450129003369155e-11   2.4458545128583261e-11   2.4361227105498704e-11   2.2431471545035483e-11   2.2337680166523896e-11   2.0474083496156767e-11   2.0383823145408001e-11   1.8590532088858165e-11   1.8503810349616539e-11   1.6784775424816756e-11   1.6701604853919012e-11   1.5060567949396033e-11   1.4980968162081707e-11   1.3421449937730503e-11   1.3345450083896575e-11   1.1870737049487514e-11   1.1798378784644512e-11   1.0411509853549720e-11   1.0342850946470633e-11   9.0466031850566131e-12   8.9817219568547243e-12   7.7785951425266409e-12   7.7175960102385899e-12   6.6097954583562668e-12   6.5528159711589000e-12   5.5422328706098366e-12   5.4894527997533275e-12   4.5776409794567704e-12   4.5292942863429500e-12   3.7174418727773554e-12   3.6738327855715592e-12   2.9627265426921540e-12   2.9242516024803256e-12   2.3142307980649374e-12   2.2814097196021852e-12   1.7723050751338229e-12   1.7458248070546315e-12   1.3368765199977475e-12   1.3176553164994865e-12   1.0074029058619832e-12   9.9668512142603861e-13   7.8282468087500543e-13   7.8232297191893937e-13   6.6155900312446988e-13   6.7366213289240780e-13   6.4180585153854362e-13   6.6978295519363421e-13   5.6178865485434446e-13   7.7102273216066895e-13   2.9566513837590546e-12   2.1474218179014833e-12   3.7790058115762433e-12   3.7922234122232630e-12   4.7476626154397852e-12   4.7533862254356241e-12   5.8507173176086178e-12   5.8507173175923949e-12   7.0796773589919849e-12   7.0751809535392085e-12   8.4276878425289338e-12   8.4195122272320277e-12   9.8886943869063546e-12   9.8773891955068124e-12   1.1457055224746176e-11   1.1442983089258775e-11   1.3127340556476073e-11   1.3110727523122199e-11   1.4894217575152045e-11   1.4875189285834606e-11   1.6752380769663033e-11   1.6730989669825695e-11   1.8696509009328424e-11   1.8672754677981915e-11   2.0721239423382036e-11   2.0695083577615390e-11   2.2821152153040674e-11   2.2792529673962541e-11   2.499076