<?xml version="1.0"?>
<VTKFile type="UnstructuredGrid"  version="0.1"  >
<UnstructuredGrid>
<Piece  NumberOfPoints="16641" NumberOfCells="32768">
<Points>
<DataArray  type="Float64"  NumberOfComponents="3"  format="ascii">0 0 0  0.0078125 0 0  0.015625 0 0  0.0234375 0 0  0.03125 0 0  0.0390625 0 0  0.046875 0 0  0.0546875 0 0  0.0625 0 0  0.0703125 0 0  0.078125 0 0  0.0859375 0 0  0.09375 0 0  0.1015625 0 0  0.109375 0 0  0.1171875 0 0  0.125 0 0  0.1328125 0 0  0.140625 0 0  0.1484375 0 0  0.15625 0 0  0.1640625 0 0  0.171875 0 0  0.1796875 0 0  0.1875 0 0  0.1953125 0 0  0.203125 0 0  0.2109375 0 0  0.21875 0 0  0.2265625 0 0  0.234375 0 0  0.2421875 0 0  0.25 0 0  0.2578125 0 0  0.265625 0 0  0.2734375 0 0  0.28125 0 0  0.2890625 0 0  0.296875 0 0  0.3046875 0 0  0.3125 0 0  0.3203125 0 0  0.328125 0 0  0.3359375 0 0  0.34375 0 0  0.3515625 0 0  0.359375 0 0  0.3671875 0 0  0.375 0 0  0.3828125 0 0  0.390625 0 0  0.3984375 0 0  0.40625 0 0  0.4140625 0 0  0.421875 0 0  0.4296875 0 0  0.4375 0 0  0.4453125 0 0  0.453125 0 0  0.4609375 0 0  0.46875 0 0  0.4765625 0 0  0.484375 0 0  0.4921875 0 0  0.5 0 0  0.5078125 0 0  0.515625 0 0  0.5234375 0 0  0.53125 0 0  0.5390625 0 0  0.546875 0 0  0.5546875 0 0  0.5625 0 0  0.5703125 0 0  0.578125 0 0  0.5859375 0 0  0.59375 0 0  0.6015625 0 0  0.609375 0 0  0.6171875 0 0  0.625 0 0  0.6328125 0 0  0.640625 0 0  0.6484375 0 0  0.65625 0 0  0.6640625 0 0  0.671875 0 0  0.6796875 0 0  0.6875 0 0  0.6953125 0 0  0.703125 0 0  0.7109375 0 0  0.71875 0 0  0.7265625 0 0  0.734375 0 0  0.7421875 0 0  0.75 0 0  0.7578125 0 0  0.765625 0 0  0.7734375 0 0  0.78125 0 0  0.7890625 0 0  0.796875 0 0  0.8046875 0 0  0.8125 0 0  0.8203125 0 0  0.828125 0 0  0.8359375 0 0  0.84375 0 0  0.8515625 0 0  0.859375 0 0  0.8671875 0 0  0.875 0 0  0.8828125 0 0  0.890625 0 0  0.8984375 0 0  0.90625 0 0  0.9140625 0 0  0.921875 0 0  0.9296875 0 0  0.9375 0 0  0.9453125 0 0  0.953125 0 0  0.9609375 0 0  0.96875 0 0  0.9765625 0 0  0.984375 0 0  0.9921875 0 0  1 0 0  0 0.0078125 0  0.0078125 0.0078125 0  0.015625 0.0078125 0  0.0234375 0.0078125 0  0.03125 0.0078125 0  0.0390625 0.0078125 0  0.046875 0.0078125 0  0.0546875 0.0078125 0  0.0625 0.0078125 0  0.0703125 0.0078125 0  0.078125 0.0078125 0  0.0859375 0.0078125 0  0.09375 0.0078125 0  0.1015625 0.0078125 0  0.109375 0.0078125 0  0.1171875 0.0078125 0  0.125 0.0078125 0  0.1328125 0.0078125 0  0.140625 0.0078125 0  0.1484375 0.0078125 0  0.15625 0.0078125 0  0.1640625 0.0078125 0  0.171875 0.0078125 0  0.1796875 0.0078125 0  0.1875 0.0078125 0  0.1953125 0.0078125 0  0.203125 0.0078125 0  0.2109375 0.0078125 0  0.21875 0.0078125 0  0.2265625 0.0078125 0  0.234375 0.0078125 0  0.2421875 0.0078125 0  0.25 0.0078125 0  0.2578125 0.0078125 0  0.265625 0.0078125 0  0.2734375 0.0078125 0  0.28125 0.0078125 0  0.2890625 0.0078125 0  0.296875 0.0078125 0  0.3046875 0.0078125 0  0.3125 0.0078125 0  0.3203125 0.0078125 0  0.328125 0.0078125 0  0.3359375 0.0078125 0  0.34375 0.0078125 0  0.3515625 0.0078125 0  0.359375 0.0078125 0  0.3671875 0.0078125 0  0.375 0.0078125 0  0.3828125 0.0078125 0  0.390625 0.0078125 0  0.3984375 0.0078125 0  0.40625 0.0078125 0  0.4140625 0.0078125 0  0.421875 0.0078125 0  0.4296875 0.0078125 0  0.4375 0.0078125 0  0.4453125 0.0078125 0  0.453125 0.0078125 0  0.4609375 0.0078125 0  0.46875 0.0078125 0  0.4765625 0.0078125 0  0.484375 0.0078125 0  0.4921875 0.0078125 0  0.5 0.0078125 0  0.5078125 0.0078125 0  0.515625 0.0078125 0  0.5234375 0.0078125 0  0.53125 0.0078125 0  0.5390625 0.0078125 0  0.546875 0.0078125 0  0.5546875 0.0078125 0  0.5625 0.0078125 0  0.5703125 0.0078125 0  0.578125 0.0078125 0  0.5859375 0.0078125 0  0.59375 0.0078125 0  0.6015625 0.0078125 0  0.609375 0.0078125 0  0.6171875 0.0078125 0  0.625 0.0078125 0  0.6328125 0.0078125 0  0.640625 0.0078125 0  0.6484375 0.0078125 0  0.65625 0.0078125 0  0.6640625 0.0078125 0  0.671875 0.0078125 0  0.6796875 0.0078125 0  0.6875 0.0078125 0  0.6953125 0.0078125 0  0.703125 0.0078125 0  0.7109375 0.0078125 0  0.71875 0.0078125 0  0.7265625 0.0078125 0  0.734375 0.0078125 0  0.7421875 0.0078125 0  0.75 0.0078125 0  0.7578125 0.0078125 0  0.765625 0.0078125 0  0.7734375 0.0078125 0  0.78125 0.0078125 0  0.7890625 0.0078125 0  0.796875 0.0078125 0  0.8046875 0.0078125 0  0.8125 0.0078125 0  0.8203125 0.0078125 0  0.828125 0.0078125 0  0.8359375 0.0078125 0  0.84375 0.0078125 0  0.8515625 0.0078125 0  0.859375 0.0078125 0  0.8671875 0.0078125 0  0.875 0.0078125 0  0.8828125 0.0078125 0  0.890625 0.0078125 0  0.8984375 0.0078125 0  0.90625 0.0078125 0  0.9140625 0.0078125 0  0.921875 0.0078125 0  0.9296875 0.0078125 0  0.9375 0.0078125 0  0.9453125 0.0078125 0  0.953125 0.0078125 0  0.9609375 0.0078125 0  0.96875 0.0078125 0  0.9765625 0.0078125 0  0.984375 0.0078125 0  0.9921875 0.0078125 0  1 0.0078125 0  0 0.015625 0  0.0078125 0.015625 0  0.015625 0.015625 0  0.0234375 0.015625 0  0.03125 0.015625 0  0.0390625 0.015625 0  0.046875 0.015625 0  0.0546875 0.015625 0  0.0625 0.015625 0  0.0703125 0.015625 0  0.078125 0.015625 0  0.0859375 0.015625 0  0.09375 0.015625 0  0.1015625 0.015625 0  0.109375 0.015625 0  0.1171875 0.015625 0  0.125 0.015625 0  0.1328125 0.015625 0  0.140625 0.015625 0  0.1484375 0.015625 0  0.15625 0.015625 0  0.1640625 0.015625 0  0.171875 0.015625 0  0.1796875 0.015625 0  0.1875 0.015625 0  0.1953125 0.015625 0  0.203125 0.015625 0  0.2109375 0.015625 0  0.21875 0.015625 0  0.2265625 0.015625 0  0.234375 0.015625 0  0.2421875 0.015625 0  0.25 0.015625 0  0.2578125 0.015625 0  0.265625 0.015625 0  0.2734375 0.015625 0  0.28125 0.015625 0  0.2890625 0.015625 0  0.296875 0.015625 0  0.3046875 0.015625 0  0.3125 0.015625 0  0.3203125 0.015625 0  0.328125 0.015625 0  0.3359375 0.015625 0  0.34375 0.015625 0  0.3515625 0.015625 0  0.359375 0.015625 0  0.3671875 0.015625 0  0.375 0.015625 0  0.3828125 0.015625 0  0.390625 0.015625 0  0.3984375 0.015625 0  0.40625 0.015625 0  0.4140625 0.015625 0  0.421875 0.015625 0  0.4296875 0.015625 0  0.4375 0.015625 0  0.4453125 0.015625 0  0.453125 0.015625 0  0.4609375 0.015625 0  0.46875 0.015625 0  0.4765625 0.015625 0  0.484375 0.015625 0  0.4921875 0.015625 0  0.5 0.015625 0  0.5078125 0.015625 0  0.515625 0.015625 0  0.5234375 0.015625 0  0.53125 0.015625 0  0.5390625 0.015625 0  0.546875 0.015625 0  0.5546875 0.015625 0  0.5625 0.015625 0  0.5703125 0.015625 0  0.578125 0.015625 0  0.5859375 0.015625 0  0.59375 0.015625 0  0.6015625 0.015625 0  0.609375 0.015625 0  0.6171875 0.015625 0  0.625 0.015625 0  0.6328125 0.015625 0  0.640625 0.015625 0  0.6484375 0.015625 0  0.65625 0.015625 0  0.6640625 0.015625 0  0.671875 0.015625 0  0.6796875 0.015625 0  0.6875 0.015625 0  0.6953125 0.015625 0  0.703125 0.015625 0  0.7109375 0.015625 0  0.71875 0.015625 0  0.7265625 0.015625 0  0.734375 0.015625 0  0.7421875 0.015625 0  0.75 0.015625 0  0.7578125 0.015625 0  0.765625 0.015625 0  0.7734375 0.015625 0  0.78125 0.015625 0  0.7890625 0.015625 0  0.796875 0.015625 0  0.8046875 0.015625 0  0.8125 0.015625 0  0.8203125 0.015625 0  0.828125 0.015625 0  0.8359375 0.015625 0  0.84375 0.015625 0  0.8515625 0.015625 0  0.859375 0.015625 0  0.8671875 0.015625 0  0.875 0.015625 0  0.8828125 0.015625 0  0.890625 0.015625 0  0.8984375 0.015625 0  0.90625 0.015625 0  0.9140625 0.015625 0  0.921875 0.015625 0  0.9296875 0.015625 0  0.9375 0.015625 0  0.9453125 0.015625 0  0.953125 0.015625 0  0.9609375 0.015625 0  0.96875 0.015625 0  0.9765625 0.015625 0  0.984375 0.015625 0  0.9921875 0.015625 0  1 0.015625 0  0 0.0234375 0  0.0078125 0.0234375 0  0.015625 0.0234375 0  0.0234375 0.0234375 0  0.03125 0.0234375 0  0.0390625 0.0234375 0  0.046875 0.0234375 0  0.0546875 0.0234375 0  0.0625 0.0234375 0  0.0703125 0.0234375 0  0.078125 0.0234375 0  0.0859375 0.0234375 0  0.09375 0.0234375 0  0.1015625 0.0234375 0  0.109375 0.0234375 0  0.1171875 0.0234375 0  0.125 0.0234375 0  0.1328125 0.0234375 0  0.140625 0.0234375 0  0.1484375 0.0234375 0  0.15625 0.0234375 0  0.1640625 0.0234375 0  0.171875 0.0234375 0  0.1796875 0.0234375 0  0.1875 0.0234375 0  0.1953125 0.0234375 0  0.203125 0.0234375 0  0.2109375 0.0234375 0  0.21875 0.0234375 0  0.2265625 0.0234375 0  0.234375 0.0234375 0  0.2421875 0.0234375 0  0.25 0.0234375 0  0.2578125 0.0234375 0  0.265625 0.0234375 0  0.2734375 0.0234375 0  0.28125 0.0234375 0  0.2890625 0.0234375 0  0.296875 0.0234375 0  0.3046875 0.0234375 0  0.3125 0.0234375 0  0.3203125 0.0234375 0  0.328125 0.0234375 0  0.3359375 0.0234375 0  0.34375 0.0234375 0  0.3515625 0.0234375 0  0.359375 0.0234375 0  0.3671875 0.0234375 0  0.375 0.0234375 0  0.3828125 0.0234375 0  0.390625 0.0234375 0  0.3984375 0.0234375 0  0.40625 0.0234375 0  0.4140625 0.0234375 0  0.421875 0.0234375 0  0.4296875 0.0234375 0  0.4375 0.0234375 0  0.4453125 0.0234375 0  0.453125 0.0234375 0  0.4609375 0.0234375 0  0.46875 0.0234375 0  0.4765625 0.0234375 0  0.484375 0.0234375 0  0.4921875 0.0234375 0  0.5 0.0234375 0  0.5078125 0.0234375 0  0.515625 0.0234375 0  0.5234375 0.0234375 0  0.53125 0.0234375 0  0.5390625 0.0234375 0  0.546875 0.0234375 0  0.5546875 0.0234375 0  0.5625 0.0234375 0  0.5703125 0.0234375 0  0.578125 0.0234375 0  0.5859375 0.0234375 0  0.59375 0.0234375 0  0.6015625 0.0234375 0  0.609375 0.0234375 0  0.6171875 0.0234375 0  0.625 0.0234375 0  0.6328125 0.0234375 0  0.640625 0.0234375 0  0.6484375 0.0234375 0  0.65625 0.0234375 0  0.6640625 0.0234375 0  0.671875 0.0234375 0  0.6796875 0.0234375 0  0.6875 0.0234375 0  0.6953125 0.0234375 0  0.703125 0.0234375 0  0.7109375 0.0234375 0  0.71875 0.0234375 0  0.7265625 0.0234375 0  0.734375 0.0234375 0  0.7421875 0.0234375 0  0.75 0.0234375 0  0.7578125 0.0234375 0  0.765625 0.0234375 0  0.7734375 0.0234375 0  0.78125 0.0234375 0  0.7890625 0.0234375 0  0.796875 0.0234375 0  0.8046875 0.0234375 0  0.8125 0.0234375 0  0.8203125 0.0234375 0  0.828125 0.0234375 0  0.8359375 0.0234375 0  0.84375 0.0234375 0  0.8515625 0.0234375 0  0.859375 0.0234375 0  0.8671
[...]
<CellData  Scalars="f_80131"> 
<DataArray  type="Float64"  Name="f_80131"  format="ascii">7.6190034156629025e-13   7.6190034156503746e-13   1.5542412263142564e-13   2.6457999340364348e-13   1.4252022015953188e-13   1.5774039310783685e-13   1.4818862296271099e-13   1.5075599876540983e-13   1.5349166229834699e-13   1.5403758265641771e-13   1.5751310158157678e-13   1.5816208685755443e-13   1.6056437574108449e-13   1.6165092344645495e-13   1.6290809734047539e-13   1.6440807910686049e-13   1.6471084193646668e-13   1.6654564089365209e-13   1.6607687786958567e-13   1.6817379338028091e-13   1.6707313790188963e-13   1.6937433046790097e-13   1.6774404865031227e-13   1.7020497873836535e-13   1.6812017329226000e-13   1.7070651731239473e-13   1.6822333848368660e-13   1.7090829647710240e-13   1.6806975849968135e-13   1.7083202202256040e-13   1.6767199232207091e-13   1.7049427764453318e-13   1.6704020296881923e-13   1.6990820543761029e-13   1.6618298712345446e-13   1.6908463581816412e-13   1.6510793388998073e-13   1.6803285729462597e-13   1.6382200763646080e-13   1.6676114764768365e-13   1.6233181495485515e-13   1.6527714516993256e-13   1.6064379226410882e-13   1.6358811116437383e-13   1.5876433933305630e-13   1.6170111673386716e-13   1.5669991417452769e-13   1.5962317664274926e-13   1.5445710082300331e-13   1.5736134528380643e-13   1.5204265609935003e-13   1.5492278497097530e-13   1.4946354258456093e-13   1.5231481413365840e-13   1.4672694942836600e-13   1.4954494030756347e-13   1.4384030494821133e-13   1.4662088137465248e-13   1.4081128240901465e-13   1.4355057839252842e-13   1.3764780055312359e-13   1.4034220112338387e-13   1.3435801961494364e-13   1.3700414846507329e-13   1.3095033456737296e-13   1.3354504423550422e-13   1.2743336466075049e-13   1.2997372948468892e-13   1.2381594153330972e-13   1.2629925226312339e-13   1.2010709465358478e-13   1.2253085442462754e-13   1.1631603551209810e-13   1.1867795705623721e-13   1.1245214045037746e-13   1.1475014385336806e-13   1.0852493221593581e-13   1.1075714350180867e-13   1.0454406054811207e-13   1.0670881034005495e-13   1.0051928203891996e-13   1.0261510468880514e-13   9.6460439125762518e-14   9.8486071960842326e-14   9.2377438897671848e-14   9.4331821272187047e-14   8.8280230776150034e-14   9.0162503570484341e-14   8.4178784765807921e-14   8.5988289221742370e-14   8.0083068390769420e-14   8.1819345212146656e-14   7.6003024467725668e-14   7.7665812446086474e-14   7.1948547971801525e-14   7.3537782706463958e-14   6.7929463350121470e-14   6.9445275416799565e-14   6.3955502080446573e-14   6.5398214764265684e-14   6.0036279350637360e-14   6.1406406881615982e-14   5.6181272261584823e-14   5.7479516695094636e-14   5.2399797384502753e-14   5.3627045863191781e-14   4.8700988947943266e-14   4.9858310403113965e-14   4.5093777509645988e-14   4.6182418920069204e-14   4.1586868545841826e-14   4.2608251242612278e-14   3.8188722568450558e-14   3.9144437615474290e-14   3.4907534561932061e-14   3.5799338330286433e-14   3.1751215048838940e-14   3.2581024090912979e-14   2.8727371121809837e-14   2.9497257020611511e-14   2.5843288690616277e-14   2.6555472239490115e-14   2.3105915097544458e-14   2.3762760483799463e-14   2.0521842837891741e-14   2.1125851169768095e-14   1.8097293682103874e-14   1.8651096708370290e-14   1.5838104448658874e-14   1.6344457368282439e-14   1.3749712715445779e-14   1.4211487255347312e-14   1.1837144325526668e-14   1.2257321194084776e-14   1.0105001452553150e-14   1.0486662781256876e-14   8.5574516896410682e-15   8.9037730544678583e-15   7.1982183878489522e-15   7.5124606757451995e-15   6.0305719429216278e-15   6.3160729284927759e-15   5.0573220732864185e-15   5.3174879693311263e-15   4.2808114421271555e-15   4.5191080644169108e-15   3.7029101687042936e-15   3.9228540694549976e-15   3.3250117319479272e-15   3.5301611332823346e-15   3.1480297889366526e-15   3.3419752914727816e-15   3.1723963465539944e-15   3.3587516388858741e-15   3.3980610114456665e-15   3.5804533494827023e-15   3.8244914432478237e-15   4.0065520866325816e-15   4.4506750024883640e-15   4.6360294885707645e-15   5.2751215559492649e-15   5.4673799155833533e-15   6.2958674631879825e-15   6.4986143349482706e-15   7.5104807618579611e-15   7.7272653817915842e-15   8.9160674873888099e-15   9.1503935957892665e-15   1.0509279142544595e-14   1.0764594796874471e-14   1.2286321363930673e-14   1.2566008586446945e-14   1.4242963664743835e-14   1.4550327937128139e-14   1.6374550353564736e-14   1.6712809912581686e-14   1.8676012486083570e-14   1.9048287422502062e-14   2.1141880978533303e-14   2.1551181988847920e-14   2.3766300834759344e-14   2.4215517516217215e-14   2.6543046340782626e-14   2.7034935090361588e-14   2.9465537400537815e-14   3.0002708585941227e-14   3.2526857026750373e-14   3.3111761223609157e-14   3.5719769658123791e-14   3.6354683003765467e-14   3.9036740950956016e-14   3.9723748749193117e-14   4.2469958316965046e-14   4.3210937082864027e-14   4.6011353006761870e-14   4.6807949924187073e-14   4.9652623236619141e-14   5.0506232513294008e-14   5.3385258882947603e-14   5.4296994068323342e-14   5.7200567833126861e-14   5.8171228644837762e-14   6.1089704035256401e-14   6.2119736264423993e-14   6.5043698289629899e-14   6.6133144079342803e-14   6.9053491588101740e-14   7.0201927335202391e-14   7.3109972636220279e-14   7.4316429593387255e-14   7.7204020199354955e-14   7.8466882418587569e-14   8.1326552753853614e-14   8.2643422791251019e-14   8.5468588081089741e-14   8.6836108559006836e-14   8.9621316887702189e-14   9.1034929751338850e-14   9.3776198308389591e-14   9.5229814305450108e-14   9.7925086992623759e-14   9.9410625471212364e-14   1.0206041080121506e-13   1.0356714652797265e-13   1.0617542822138176e-13   1.0768904775366984e-13   1.1026461857274295e-13   1.1176582682511306e-13   1.1432429670066817e-13   1.1578671246316007e-13   1.1835362746957452e-13   1.1974052065134254e-13   1.2235637585504648e-13   1.2361546038731704e-13   1.2634408306683025e-13   1.2739893045482768e-13   1.3034213984146049e-13   1.3107750572597309e-13   1.3440204862553703e-13   1.3463786725759715e-13   1.3862741100484767e-13   1.3807138552873626e-13   1.4323034096476800e-13   1.4139226684747274e-13   1.4864700583305621e-13   1.4470726765578208e-13   1.5568818454730616e-13   1.4849034556476459e-13   1.6501798130732498e-13   1.5468552258394817e-13   1.7148234778139821e-13   1.7072389436362486e-13   1.9707051101420316e-13   2.1278803566830054e-13   1.0574760863240131e-11   4.3700433328676952e-13   2.6457999340200568e-13   1.5542412263100962e-13   1.8340148475531734e-13   1.8340148475434903e-13   1.6521813716986629e-13   1.8862620732057801e-13   1.6271113016989003e-13   1.7684625754415889e-13   1.6349645828799449e-13   1.6952101964941864e-13   1.6524479618352247e-13   1.6761892400253805e-13   1.6704918731625563e-13   1.6791536228356131e-13   1.6863221703198351e-13   1.6889760114238390e-13   1.6992300292176117e-13   1.6997813451640066e-13   1.7091343274930685e-13   1.7093195451850116e-13   1.7161303581205968e-13   1.7167322169232797e-13   1.7203493305567279e-13   1.7217122391208971e-13   1.7219167208770411e-13   1.7241770311520353e-13   1.7209425528972781e-13   1.7241361153351522e-13   1.7175217068250330e-13   1.7216358507349162e-13   1.7117369235840832e-13   1.7167361806208053e-13   1.7036620972138001e-13   1.7095010894646630e-13   1.6933651355221657e-13   1.6999950189082954e-13   1.6809102445415526e-13   1.6882818652078111e-13   1.6663597011313489e-13   1.6744250482530675e-13   1.6497751850441200e-13   1.6584879723272790e-13   1.6312187858925405e-13   1.6405345854544651e-13   1.6107537363903903e-13   1.6206299042846956e-13   1.5884449561889421e-13   1.5988404625089640e-13   1.5643594362721608e-13   1.5752346622863801e-13   1.5385665009412327e-13   1.5498830439099363e-13   1.5111379788825452e-13   1.5228584724188757e-13   1.4821483011855033e-13   1.4942362601180565e-13   1.4516745380710543e-13   1.4640942292433010e-13   1.4197963905758007e-13   1.4325127253703804e-13   1.3865961378499140e-13   1.3995745924493944e-13   1.3521585623673710e-13   1.3653651113648740e-13   1.3165708365660679e-13   1.3299719110845161e-13   1.2799223982844663e-13   1.2934848555854981e-13   1.2423048014863682e-13   1.2559959074912786e-13   1.2038115514803823e-13   1.2175989744267748e-13   1.1645379304838804e-13   1.1783897433512157e-13   1.1245808046390649e-13   1.1384654999873534e-13   1.0840384294001366e-13   1.0979249343662701e-13   1.0430102405812920e-13   1.0568679432190043e-13   1.0015966420927552e-13   1.0153954187149150e-13   9.5989878566347086e-14   9.7360903176638335e-14   9.1801834693041816e-14   9.3161101511232923e-14   8.7605729716765390e-14   8.8950393167576057e-14   8.3411767282768768e-14   8.4739045269308078e-14   7.9230134555381259e-14   8.0537312024995867e-14   7.5070978201786356e-14   7.6355411881675542e-14   7.0944381557250370e-14   7.2203504008818176e-14   6.6860341361447472e-14   6.8091664786913864e-14   6.2828743900978741e-14   6.4029864994180717e-14   5.8859342383912229e-14   6.0027945956461619e-14   5.4961734159402192e-14   5.6095597607791017e-14   5.1145337997586365e-14   5.2242335101196480e-14   4.7419371998809452e-14   4.8477476679187617e-14   4.3792832160779240e-14   4.4810122413828230e-14   4.0274470734699986e-14   4.1249131913497173e-14   3.6872776057247608e-14   3.7803104324049491e-14   3.3595952073321611e-14   3.4480357558854208e-14   3.0451899277360999e-14   3.1288909028787048e-14   2.7448195935987780e-14   2.8236456357668754e-14   2.4592080005086809e-14   2.5330359750883251e-14   2.1890432535313418e-14   2.2577623957253510e-14   1.9349760581139241e-14   1.9984882293948192e-14   1.6976182438252569e-14   1.7558380724011737e-14   1.4775413101296215e-14   1.5303963141683254e-14   1.2752750713890816e-14   1.3227057367333065e-14   1.0913063928838945e-14   1.1332662842566621e-14   9.2607805790307074e-15   9.6253382608077926e-15   7.7998773348718493e-15   8.1091913596871647e-15   6.5338702102035898e-15   6.7878687868762826e-15   5.4658066233983751e-15   5.6645479400980827e-15   4.5982579706984743e-15   4.7419291685202124e-15   3.9333140162137028e-15   4.0222298033717468e-15   3.4725778507215144e-15   3.5071788104517453e-15   3.2171626038447786e-15   3.1980129454798297e-15   3.1676887750179212e-15   3.0954738798458352e-15   3.3242831913906153e-15   3.1998066332296715e-15   3.6865789612542331e-15   3.5107591915132987e-15   4.2537166799394737e-15   4.0275832512851831e-15   5.0243468237284582e-15   4.7490361701689482e-15   5.9966333819894543e-15   5.6733841505634999e-15   7.1682586371385212e-15   6.7984065214325665e-15   8.5364291200954694e-15   8.1214012209259424e-15   1.0097882820846997e-14   9.6391914054482955e-15   1.1848897430569939e-14   1.1348133166694553e-14   1.3785299854299686e-14   1.3244124380546059e-14   1.5902476761291280e-14   1.5322614557841081e-14   1.8195386279066306e-14   1.7578615791406070e-14   2.0658570768670369e-14   2.0006714656651837e-14   2.3286170635697167e-14   2.2601085068379684e-14   2.6071939251917827e-14   2.5355502032539052e-14   2.9009258721321262e-14   2.8263356185819063e-14   3.2091156978599130e-14   3.1317669248551583e-14   3.5310325252291249e-14   3.4511109887748651e-14   3.8659137179648209e-14   3.7836010505780566e-14   4.2129668270977800e-14   4.1284384127118335e-14   4.5713716421845756e-14   4.4847941882599206e-14   4.9402823488252122e-14   4.8518110527415788e-14   5.3188297322273020e-14   5.2286049757413907e-14   5.7061234889990113e-14   5.6142669296052871e-14   6.1012546099060753e-14   6.0078645123939734e-14   6.5032978260971036e-14   6.4084434487626581e-14   6.9113141483119059e-14   6.8150288728275268e-14   7.3243534529343079e-14   7.2266263540567000e-14   7.7414571228566729e-14   7.6422224721912534e-14   8.1616607192629479e-14   8.0607848155499964e-14   8.5839966771646316e-14   8.4812610903040094e-14   9.0074968879123648e-14   8.9025770141915185e-14   9.4311951370921375e-14   9.3236324199665789e-14   9.8541290888601269e-14   9.7432947450652684e-14   1.0275341493917043e-13   1.0160388695705983e-13   1.0693879720158450e-13   1.0573680205089134e-13   1.1108792120085591e-13   1.0981851768515420e-13   1.1519118124438645e-13   1.1383464634964715e-13   1.1923865572792692e-13   1.1776900586916461e-13   1.2321961505791704e-13   1.2160271818087322e-13   1.2712145032565102e-13   1.2531280360054631e-13   1.3092727482544446e-13   1.2886997482980718e-13   1.3461029300399649e-13   1.3223517062973663e-13   1.3811975789642973e-13   1.3535414713776749e-13   1.4134355629847755e-13   1.3814919084487099e-13   1.4400247837637572e-13   1.4050650650155808e-13   1.4534404609605476e-13   1.4225364498272535e-13   1.4333132779148578e-13   1.4308534508176135e-13   1.3364866193478005e-13   1.4216789649624532e-13   1.2147771249299302e-13   1.3652970538425629e-13   2.3078602363389284e-13   1.2681184757732713e-13   1.9936411575546202e-13   2.1580405540638477e-13   1.5774039310799788e-13   1.4252022015774107e-13   1.8862620732009856e-13   1.6521813717163862e-13   1.7690905935705347e-13   1.7690905935659186e-13   1.7183458689612009e-13   1.8028002032035410e-13   1.7030303857686188e-13   1.7784452613257718e-13   1.7029244243502516e-13   1.7528976016642322e-13   1.7090195385480299e-13   1.7399010993487646e-13   1.7168793857950283e-13   1.7361156122208279e-13   1.7243283285009471e-13   1.7369007404217514e-13   1.7303256131368551e-13   1.7392203538160049e-13   1.7343832442006196e-13   1.7413523670255594e-13   1.7362810140939023e-13   1.7423554719258238e-13   1.7359298479769843e-13   1.7417211449910713e-13   1.7333060758561078e-13   1.7391788431837925e-13   1.7284194583680241e-13   1.7345905482633766e-13   1.7212974635884493e-13   1.7278936585240684e-13   1.7119774907046089e-13   1.7190697033678221e-13   1.7005030453965764e-13   1.7081269541456138e-13   1.6869218988382680e-13   1.6950906184050919e-13   1.6712852408690218e-13   1.6799972288522202e-13   1.6536473322368593e-13   1.6628913969693511e-13   1.6340653921985501e-13   1.6438239071917219e-13   1.6125995862621728e-13   1.6228505845537012e-13   1.5893130580476545e-13   1.6000316062829831e-13   1.5642719501433904e-13   1.5754310660920061e-13   1.5375454207347915e-13   1.5491166906709936e-13   1.5092056257873541e-13   1.5211596285676430e-13   1.4793276875957297e-13   1.4916342863054541e-13   1.4479896280837755e-13   1.4606181814063131e-13   1.4152722899133194e-13   1.4281918009202239e-13   1.3812592243196494e-13   1.3944384582645930e-13   1.3460365710336884e-13   1.3594441446783804e-13   1.3096929157201138e-13   1.3232973698015336e-13   1.2723191286115917e-13   1.2860889946784495e-13   1.2340082000791573e-13   1.2479120569499304e-13   1.1948550566037084e-13   1.2088615833217037e-13   1.1549563660841284e-13   1.1690343936257184e-13   1.1144103395523505e-13   1.1285289012830563e-13   1.0733165199780642e-13   1.0874449007731566e-13   1.0317755679569049e-13   1.0458833571440039e-13   9.8988903972983115e-14   1.0039461766102649e-13   9.4775915939045808e-14   9.6173598812006505e-14   9.0548859203828279e-14   9.1935590728645407e-14   8.6318020937091235e-14   8.7690931123641129e-14   8.2093685372320732e-14   8.3449959483089559e-14   7.7886110314149432e-14   7.9222994275520595e-14   7.3705503444834390e-14   7.5020308360253691e-14   6.9561998649587426e-14   7.0852106126773086e-14   6.5465632275415691e-14   6.6728499175335490e-14   6.1426320036908230e-14   6.2659483175535883e-14   5.7453833316873153e-14   5.8654914521868048e-14   5.3557776920595045e-14   5.4724487054704038e-14   4.9747565974512686e-14   5.0877709546745523e-14   4.6032403831671803e-14   4.7123883280775709e-14   4.2421260573569541e-14   4.3472080330186335e-14   3.8922851811017570e-14   3.9931122148645199e-14   3.5545617917352429e-14   3.6509558583228468e-14   3.2297704253631979e-14   3.3215648030728767e-14   2.9186941906930747e-14   3.0057337624918784e-14   2.6220829143472152e-14   2.7042244726936795e-14   2.3406513557568438e-14   2.4177638701107599e-14   2.0750775313197977e-14   2.1470423913412442e-14   1.8260010953740288e-14   1.8927123316662353e-14   1.5940218523041461e-14   1.6553863003160355e-14   1.3796983108275104e-14   1.4356357730990935e-14   1.1835463700640108e-14   1.2339897472237248e-14   1.0060381222194969e-14   1.0509334833973607e-14   8.4760071885392047e-15   8.8690737270669746e-15   7.0861536616665250e-15   7.4230587260392144e-15   5.8941644250949626e-15   6.1747660841263711e-15   4.9029071192770180e-15   5.1271952885840083e-15   4.1147664951070250e-15   4.2828622222568324e-15   3.5316389616421088e-15   3.6437931488720640e-15   3.1549282464033241e-15   3.2115200176875858e-15   2.9855421773809755e-15   2.9870769322397964e-15   3.0238908274949171e-15   2.9709978267485038e-15   3.2698856277669671e-15   3.1633152504924271e-15   3.7229398835068083e-15   3.5635603600269457e-15   4.3819703834166595e-15   4.1707642314853927e-15   5.2454002389647198e-15   4.9834601342298169e-15   6.3111628944725124e-15   5.9996871790768552e-15   7.5767073055287574e-15   7.2169949637047255e-15   9.0390043323008733e-15   8.6324494745248771e-15   1.0694554178771211e-14   1.0242640029810447e-14   1.2539395077524606e-14   1.2043687355694224e-14   1.4569112936332551e-14   1.4031252644883861e-14   1.6778852165428998e-14   1.6200547774576104e-14   1.9163327507461868e-14   1.8546346308221075e-14   2.1716836789068107e-14   2.1062995562593848e-14   2.4433274680965064e-14   2.3744429435710180e-14   2.7306147438724944e-14   2.6584182153671565e-14   3.0328588175533653e-14   2.9575402468934717e-14   3.3493373412876283e-14   3.2710868727191018e-14   3.6792939650637746e-14   3.5983004195971764e-14   4.0219401133515117e-14   3.9383892754421319e-14   4.3764567582541031e-14   4.2905294822175541e-14   4.7419962503982440e-14   4.6538662981807230e-14   5.1176841389574045e-14   5.0275157426697952e-14   5.5026209887049634e-14   5.4105660364806846e-14   5.8958841136973247e-14   5.8020789344976212e-14   6.2965292488196591e-14   6.2010908570648379e-14   6.7035919939615866e-14   6.6066137444393795e-14   7.1160890407023690e-14   7.0176355131305813e-14   7.5330189634641504e-14   7.4331199542166079e-14   7.9533624032932387e-14   7.8520058611392109e-14   8.3760813675243945e-14   8.2732050733463812e-14   8.8001171422785598e-14   8.6955989847825846e-14   9.2243861776428330e-14   9.1180329247937449e-14   9.6477728059558609e-14   9.5393074531080473e-14   1.0069117059394968e-13   9.9581652825727237e-14   1.0487194712351607e-13   1.0373271789997069e-13   1.0900684651346414e-13   1.0783186129467288e-13   1.1308115316033768e-13   1.1186318359279270e-13   1.1707775273338315e-13   1.1580865406208774e-13   1.2097560930207984e-13   1.1964714722095470e-13   1.2474710102948460e-13   1.2335297737643416e-13   1.2835321447709363e-13   1.2689364285230215e-13   1.3173458135923366e-13   1.3022630497557701e-13   1.3479419467419200e-13   1.3329220184546157e-13   1.3736318781674230e-13   1.3600759135977157e-13   1.3913276141747452e-13   1.3824858223178958e-13   1.3952610778746606e-13   1.3982449101067742e-13   1.3751293400543163e-13   1.4042946038121708e-13   1.3165562075600751e-13   1.3957075522079477e-13   1.2192664641509601e-13   1.3667152969831177e-13   1.1585875023489381e-13   1.3298614614578495e-13   1.2426673900594405e-13   1.4054462857572283e-13   1.7821192114174937e-13   1.7906147806276485e-13   1.5075599876897192e-13   1.4818862296516436e-13   1.7684625753887945e-13   1.6271113016535444e-13   1.8028002031610667e-13   1.7183458689475300e-13   1.7764378114089450e-13   1.7764378114842425e-13   1.7574055233037868e-13   1.7937030165279683e-13   1.7487901457208773e-13   1.7890376103304494e-13   1.7466712153979718e-13   1.7799757010909264e-13   1.7477848689736560e-13   1.7730455256895292e-13   1.7499633707943373e-13   1.7688508758510114e-13   1.7518674958119193e-13   1.7662984876936552e-13   1.7526984285439276e-13   1.7642028238791697e-13   1.7519889116875704e-13   1.7616653414301026e-13   1.7494703588396187e-13   1.7580771551046432e-13   1.7449930030018989e-13   1.7530455155173473e-13   1.73847898