<?xml version="1.0"?>
<VTKFile type="UnstructuredGrid"  version="0.1"  >
<UnstructuredGrid>
<Piece  NumberOfPoints="16641" NumberOfCells="32768">
<Points>
<DataArray  type="Float64"  NumberOfComponents="3"  format="ascii">0 0 0  0.0078125 0 0  0.015625 0 0  0.0234375 0 0  0.03125 0 0  0.0390625 0 0  0.046875 0 0  0.0546875 0 0  0.0625 0 0  0.0703125 0 0  0.078125 0 0  0.0859375 0 0  0.09375 0 0  0.1015625 0 0  0.109375 0 0  0.1171875 0 0  0.125 0 0  0.1328125 0 0  0.140625 0 0  0.1484375 0 0  0.15625 0 0  0.1640625 0 0  0.171875 0 0  0.1796875 0 0  0.1875 0 0  0.1953125 0 0  0.203125 0 0  0.2109375 0 0  0.21875 0 0  0.2265625 0 0  0.234375 0 0  0.2421875 0 0  0.25 0 0  0.2578125 0 0  0.265625 0 0  0.2734375 0 0  0.28125 0 0  0.2890625 0 0  0.296875 0 0  0.3046875 0 0  0.3125 0 0  0.3203125 0 0  0.328125 0 0  0.3359375 0 0  0.34375 0 0  0.3515625 0 0  0.359375 0 0  0.3671875 0 0  0.375 0 0  0.3828125 0 0  0.390625 0 0  0.3984375 0 0  0.40625 0 0  0.4140625 0 0  0.421875 0 0  0.4296875 0 0  0.4375 0 0  0.4453125 0 0  0.453125 0 0  0.4609375 0 0  0.46875 0 0  0.4765625 0 0  0.484375 0 0  0.4921875 0 0  0.5 0 0  0.5078125 0 0  0.515625 0 0  0.5234375 0 0  0.53125 0 0  0.5390625 0 0  0.546875 0 0  0.5546875 0 0  0.5625 0 0  0.5703125 0 0  0.578125 0 0  0.5859375 0 0  0.59375 0 0  0.6015625 0 0  0.609375 0 0  0.6171875 0 0  0.625 0 0  0.6328125 0 0  0.640625 0 0  0.6484375 0 0  0.65625 0 0  0.6640625 0 0  0.671875 0 0  0.6796875 0 0  0.6875 0 0  0.6953125 0 0  0.703125 0 0  0.7109375 0 0  0.71875 0 0  0.7265625 0 0  0.734375 0 0  0.7421875 0 0  0.75 0 0  0.7578125 0 0  0.765625 0 0  0.7734375 0 0  0.78125 0 0  0.7890625 0 0  0.796875 0 0  0.8046875 0 0  0.8125 0 0  0.8203125 0 0  0.828125 0 0  0.8359375 0 0  0.84375 0 0  0.8515625 0 0  0.859375 0 0  0.8671875 0 0  0.875 0 0  0.8828125 0 0  0.890625 0 0  0.8984375 0 0  0.90625 0 0  0.9140625 0 0  0.921875 0 0  0.9296875 0 0  0.9375 0 0  0.9453125 0 0  0.953125 0 0  0.9609375 0 0  0.96875 0 0  0.9765625 0 0  0.984375 0 0  0.9921875 0 0  1 0 0  0 0.0078125 0  0.0078125 0.0078125 0  0.015625 0.0078125 0  0.0234375 0.0078125 0  0.03125 0.0078125 0  0.0390625 0.0078125 0  0.046875 0.0078125 0  0.0546875 0.0078125 0  0.0625 0.0078125 0  0.0703125 0.0078125 0  0.078125 0.0078125 0  0.0859375 0.0078125 0  0.09375 0.0078125 0  0.1015625 0.0078125 0  0.109375 0.0078125 0  0.1171875 0.0078125 0  0.125 0.0078125 0  0.1328125 0.0078125 0  0.140625 0.0078125 0  0.1484375 0.0078125 0  0.15625 0.0078125 0  0.1640625 0.0078125 0  0.171875 0.0078125 0  0.1796875 0.0078125 0  0.1875 0.0078125 0  0.1953125 0.0078125 0  0.203125 0.0078125 0  0.2109375 0.0078125 0  0.21875 0.0078125 0  0.2265625 0.0078125 0  0.234375 0.0078125 0  0.2421875 0.0078125 0  0.25 0.0078125 0  0.2578125 0.0078125 0  0.265625 0.0078125 0  0.2734375 0.0078125 0  0.28125 0.0078125 0  0.2890625 0.0078125 0  0.296875 0.0078125 0  0.3046875 0.0078125 0  0.3125 0.0078125 0  0.3203125 0.0078125 0  0.328125 0.0078125 0  0.3359375 0.0078125 0  0.34375 0.0078125 0  0.3515625 0.0078125 0  0.359375 0.0078125 0  0.3671875 0.0078125 0  0.375 0.0078125 0  0.3828125 0.0078125 0  0.390625 0.0078125 0  0.3984375 0.0078125 0  0.40625 0.0078125 0  0.4140625 0.0078125 0  0.421875 0.0078125 0  0.4296875 0.0078125 0  0.4375 0.0078125 0  0.4453125 0.0078125 0  0.453125 0.0078125 0  0.4609375 0.0078125 0  0.46875 0.0078125 0  0.4765625 0.0078125 0  0.484375 0.0078125 0  0.4921875 0.0078125 0  0.5 0.0078125 0  0.5078125 0.0078125 0  0.515625 0.0078125 0  0.5234375 0.0078125 0  0.53125 0.0078125 0  0.5390625 0.0078125 0  0.546875 0.0078125 0  0.5546875 0.0078125 0  0.5625 0.0078125 0  0.5703125 0.0078125 0  0.578125 0.0078125 0  0.5859375 0.0078125 0  0.59375 0.0078125 0  0.6015625 0.0078125 0  0.609375 0.0078125 0  0.6171875 0.0078125 0  0.625 0.0078125 0  0.6328125 0.0078125 0  0.640625 0.0078125 0  0.6484375 0.0078125 0  0.65625 0.0078125 0  0.6640625 0.0078125 0  0.671875 0.0078125 0  0.6796875 0.0078125 0  0.6875 0.0078125 0  0.6953125 0.0078125 0  0.703125 0.0078125 0  0.7109375 0.0078125 0  0.71875 0.0078125 0  0.7265625 0.0078125 0  0.734375 0.0078125 0  0.7421875 0.0078125 0  0.75 0.0078125 0  0.7578125 0.0078125 0  0.765625 0.0078125 0  0.7734375 0.0078125 0  0.78125 0.0078125 0  0.7890625 0.0078125 0  0.796875 0.0078125 0  0.8046875 0.0078125 0  0.8125 0.0078125 0  0.8203125 0.0078125 0  0.828125 0.0078125 0  0.8359375 0.0078125 0  0.84375 0.0078125 0  0.8515625 0.0078125 0  0.859375 0.0078125 0  0.8671875 0.0078125 0  0.875 0.0078125 0  0.8828125 0.0078125 0  0.890625 0.0078125 0  0.8984375 0.0078125 0  0.90625 0.0078125 0  0.9140625 0.0078125 0  0.921875 0.0078125 0  0.9296875 0.0078125 0  0.9375 0.0078125 0  0.9453125 0.0078125 0  0.953125 0.0078125 0  0.9609375 0.0078125 0  0.96875 0.0078125 0  0.9765625 0.0078125 0  0.984375 0.0078125 0  0.9921875 0.0078125 0  1 0.0078125 0  0 0.015625 0  0.0078125 0.015625 0  0.015625 0.015625 0  0.0234375 0.015625 0  0.03125 0.015625 0  0.0390625 0.015625 0  0.046875 0.015625 0  0.0546875 0.015625 0  0.0625 0.015625 0  0.0703125 0.015625 0  0.078125 0.015625 0  0.0859375 0.015625 0  0.09375 0.015625 0  0.1015625 0.015625 0  0.109375 0.015625 0  0.1171875 0.015625 0  0.125 0.015625 0  0.1328125 0.015625 0  0.140625 0.015625 0  0.1484375 0.015625 0  0.15625 0.015625 0  0.1640625 0.015625 0  0.171875 0.015625 0  0.1796875 0.015625 0  0.1875 0.015625 0  0.1953125 0.015625 0  0.203125 0.015625 0  0.2109375 0.015625 0  0.21875 0.015625 0  0.2265625 0.015625 0  0.234375 0.015625 0  0.2421875 0.015625 0  0.25 0.015625 0  0.2578125 0.015625 0  0.265625 0.015625 0  0.2734375 0.015625 0  0.28125 0.015625 0  0.2890625 0.015625 0  0.296875 0.015625 0  0.3046875 0.015625 0  0.3125 0.015625 0  0.3203125 0.015625 0  0.328125 0.015625 0  0.3359375 0.015625 0  0.34375 0.015625 0  0.3515625 0.015625 0  0.359375 0.015625 0  0.3671875 0.015625 0  0.375 0.015625 0  0.3828125 0.015625 0  0.390625 0.015625 0  0.3984375 0.015625 0  0.40625 0.015625 0  0.4140625 0.015625 0  0.421875 0.015625 0  0.4296875 0.015625 0  0.4375 0.015625 0  0.4453125 0.015625 0  0.453125 0.015625 0  0.4609375 0.015625 0  0.46875 0.015625 0  0.4765625 0.015625 0  0.484375 0.015625 0  0.4921875 0.015625 0  0.5 0.015625 0  0.5078125 0.015625 0  0.515625 0.015625 0  0.5234375 0.015625 0  0.53125 0.015625 0  0.5390625 0.015625 0  0.546875 0.015625 0  0.5546875 0.015625 0  0.5625 0.015625 0  0.5703125 0.015625 0  0.578125 0.015625 0  0.5859375 0.015625 0  0.59375 0.015625 0  0.6015625 0.015625 0  0.609375 0.015625 0  0.6171875 0.015625 0  0.625 0.015625 0  0.6328125 0.015625 0  0.640625 0.015625 0  0.6484375 0.015625 0  0.65625 0.015625 0  0.6640625 0.015625 0  0.671875 0.015625 0  0.6796875 0.015625 0  0.6875 0.015625 0  0.6953125 0.015625 0  0.703125 0.015625 0  0.7109375 0.015625 0  0.71875 0.015625 0  0.7265625 0.015625 0  0.734375 0.015625 0  0.7421875 0.015625 0  0.75 0.015625 0  0.7578125 0.015625 0  0.765625 0.015625 0  0.7734375 0.015625 0  0.78125 0.015625 0  0.7890625 0.015625 0  0.796875 0.015625 0  0.8046875 0.015625 0  0.8125 0.015625 0  0.8203125 0.015625 0  0.828125 0.015625 0  0.8359375 0.015625 0  0.84375 0.015625 0  0.8515625 0.015625 0  0.859375 0.015625 0  0.8671875 0.015625 0  0.875 0.015625 0  0.8828125 0.015625 0  0.890625 0.015625 0  0.8984375 0.015625 0  0.90625 0.015625 0  0.9140625 0.015625 0  0.921875 0.015625 0  0.9296875 0.015625 0  0.9375 0.015625 0  0.9453125 0.015625 0  0.953125 0.015625 0  0.9609375 0.015625 0  0.96875 0.015625 0  0.9765625 0.015625 0  0.984375 0.015625 0  0.9921875 0.015625 0  1 0.015625 0  0 0.0234375 0  0.0078125 0.0234375 0  0.015625 0.0234375 0  0.0234375 0.0234375 0  0.03125 0.0234375 0  0.0390625 0.0234375 0  0.046875 0.0234375 0  0.0546875 0.0234375 0  0.0625 0.0234375 0  0.0703125 0.0234375 0  0.078125 0.0234375 0  0.0859375 0.0234375 0  0.09375 0.0234375 0  0.1015625 0.0234375 0  0.109375 0.0234375 0  0.1171875 0.0234375 0  0.125 0.0234375 0  0.1328125 0.0234375 0  0.140625 0.0234375 0  0.1484375 0.0234375 0  0.15625 0.0234375 0  0.1640625 0.0234375 0  0.171875 0.0234375 0  0.1796875 0.0234375 0  0.1875 0.0234375 0  0.1953125 0.0234375 0  0.203125 0.0234375 0  0.2109375 0.0234375 0  0.21875 0.0234375 0  0.2265625 0.0234375 0  0.234375 0.0234375 0  0.2421875 0.0234375 0  0.25 0.0234375 0  0.2578125 0.0234375 0  0.265625 0.0234375 0  0.2734375 0.0234375 0  0.28125 0.0234375 0  0.2890625 0.0234375 0  0.296875 0.0234375 0  0.3046875 0.0234375 0  0.3125 0.0234375 0  0.3203125 0.0234375 0  0.328125 0.0234375 0  0.3359375 0.0234375 0  0.34375 0.0234375 0  0.3515625 0.0234375 0  0.359375 0.0234375 0  0.3671875 0.0234375 0  0.375 0.0234375 0  0.3828125 0.0234375 0  0.390625 0.0234375 0  0.3984375 0.0234375 0  0.40625 0.0234375 0  0.4140625 0.0234375 0  0.421875 0.0234375 0  0.4296875 0.0234375 0  0.4375 0.0234375 0  0.4453125 0.0234375 0  0.453125 0.0234375 0  0.4609375 0.0234375 0  0.46875 0.0234375 0  0.4765625 0.0234375 0  0.484375 0.0234375 0  0.4921875 0.0234375 0  0.5 0.0234375 0  0.5078125 0.0234375 0  0.515625 0.0234375 0  0.5234375 0.0234375 0  0.53125 0.0234375 0  0.5390625 0.0234375 0  0.546875 0.0234375 0  0.5546875 0.0234375 0  0.5625 0.0234375 0  0.5703125 0.0234375 0  0.578125 0.0234375 0  0.5859375 0.0234375 0  0.59375 0.0234375 0  0.6015625 0.0234375 0  0.609375 0.0234375 0  0.6171875 0.0234375 0  0.625 0.0234375 0  0.6328125 0.0234375 0  0.640625 0.0234375 0  0.6484375 0.0234375 0  0.65625 0.0234375 0  0.6640625 0.0234375 0  0.671875 0.0234375 0  0.6796875 0.0234375 0  0.6875 0.0234375 0  0.6953125 0.0234375 0  0.703125 0.0234375 0  0.7109375 0.0234375 0  0.71875 0.0234375 0  0.7265625 0.0234375 0  0.734375 0.0234375 0  0.7421875 0.0234375 0  0.75 0.0234375 0  0.7578125 0.0234375 0  0.765625 0.0234375 0  0.7734375 0.0234375 0  0.78125 0.0234375 0  0.7890625 0.0234375 0  0.796875 0.0234375 0  0.8046875 0.0234375 0  0.8125 0.0234375 0  0.8203125 0.0234375 0  0.828125 0.0234375 0  0.8359375 0.0234375 0  0.84375 0.0234375 0  0.8515625 0.0234375 0  0.859375 0.0234375 0  0.8671
[...]
<CellData  Scalars="f_80149"> 
<DataArray  type="Float64"  Name="f_80149"  format="ascii">9.3936434054747360e-12   9.3936434054670264e-12   1.6186882752502913e-11   2.0974293516166851e-11   2.4529409478631433e-11   3.3004539335714398e-11   3.4370189619505086e-11   4.7226416792649635e-11   4.5659307112954189e-11   6.3554468501367298e-11   5.8347311517552217e-11   8.1910905780798686e-11   7.2384225944040466e-11   1.0221976862204541e-10   8.7719267184761186e-11   1.2440514950940961e-10   1.0430071679259675e-10   1.4839049835143798e-10   1.2207581831672080e-10   1.7409823633045549e-10   1.4099069318948413e-10   2.0144949989999299e-10   1.6099028068131371e-10   2.3036396820298990e-10   1.8201830359491514e-10   2.6075975480048991e-10   2.0401725823245173e-10   2.9255335131637866e-10   2.2692842592307005e-10   3.2565961339581233e-10   2.5069190321472441e-10   3.5999178134809810e-10   2.7524664808228786e-10   3.9546152941189194e-10   3.0053053987448074e-10   4.3197903885819106e-10   3.2648045107620213e-10   4.6945309111248542e-10   3.5303232928275992e-10   5.0779117784127982e-10   3.8012128803009314e-10   5.4689962550936368e-10   4.0768170532620987e-10   5.8668373235627832e-10   4.3564732889112813e-10   6.2704791604783387e-10   4.6395138722821974e-10   6.6789587054018073e-10   4.9252670575047932e-10   7.0913073083958393e-10   5.2130582726280224e-10   7.5065524453161155e-10   5.5022113614456441e-10   7.9237194903943561e-10   5.7920498564762390e-10   8.3418335366422363e-10   6.0818982774037522e-10   8.7599212553767510e-10   6.3710834497013098e-10   9.1770127867913066e-10   6.6589358383144527e-10   9.5921436535909476e-10   6.9447908916533459e-10   1.0004356690683685e-09   7.2279903911000039e-10   1.0412703983627537e-09   7.5078838015589467e-10   1.0816248809303185e-09   7.7838296186435995e-10   1.1214067572099051e-09   8.0551967081984838e-10   1.1605251729427353e-09   8.3213656340417657e-10   1.1988909700423491e-09   8.5817299698945783e-10   1.2364168752015872e-09   8.8356975915027204e-10   1.2730176856357420e-09   9.0826919452573356e-10   1.3086104514471273e-09   9.3221532894350237e-10   1.3431146540245056e-09   9.5535399046372945e-10   1.3764523799966890e-09   9.7763292697895741e-10   1.4085484902029617e-09   9.9900192005868871e-10   1.4393307832315564e-09   1.0194128946840409e-09   1.4687301530200585e-09   1.0388200245924427e-09   1.4966807401026232e-09   1.0571798329081765e-09   1.5231200760463202e-09   1.0744512878035194e-09   1.5479892206983472e-09   1.0905958929092925e-09   1.5712328918331423e-09   1.1055777722064584e-09   1.5927995868696968e-09   1.1193637491895544e-09   1.6126416962382777e-09   1.1319234200600867e-09   1.6307156081982009e-09   1.1432292207497874e-09   1.6469818046848596e-09   1.1532564875834866e-09   1.6614049480159705e-09   1.1619835114039152e-09   1.6739539581244034e-09   1.1693915850122036e-09   1.6846020801714062e-09   1.1754650437822520e-09   1.6933269422789914e-09   1.1801912993252860e-09   1.7001106032594651e-09   1.1835608661024692e-09   1.7049395901617677e-09   1.1855673809117652e-09   1.7078049255336200e-09   1.1862076151726729e-09   1.7087021443046780e-09   1.1854814799618776e-09   1.7076313002212576e-09   1.1833920237876760e-09   1.7045969617931723e-09   1.1799454230701025e-09   1.6996081977599018e-09   1.1751509653496512e-09   1.6926785520507991e-09   1.1690210252628599e-09   1.6838260083244056e-09   1.1615710333032676e-09   1.6730729441448434e-09   1.1528194374415204e-09   1.6604460748455385e-09   1.1427876577182296e-09   1.6459763872715114e-09   1.1315000338669056e-09   1.6296990635249795e-09   1.1189837660941130e-09   1.6116533948277163e-09   1.1052688491777882e-09   1.5918826857876227e-09   1.0903880000122288e-09   1.5704341492249309e-09   1.0743765787605007e-09   1.5473587918528504e-09   1.0572725038252157e-09   1.5227112910097242e-09   1.0391161608155100e-09   1.4965498628146011e-09   1.0199503057343300e-09   1.4689361220106968e-09   9.9981996260836206e-10   1.4399349338331457e-09   9.7877231580529072e-10   1.4096142582624004e-09   9.5685659729259349e-10   1.3780449870267936e-09   9.3412396911093530e-10   1.3453007737508377e-09   9.1062740132231520e-10   1.3114578576517859e-09   8.8642154574190737e-10   1.2765948811891063e-09   8.6156260573476685e-10   1.2407927021255657e-09   8.3610820240254068e-10   1.2041342004317533e-09   8.1011723744820551e-10   1.1667040805124073e-09   7.8364975306236997e-10   1.1285886691688080e-09   7.5676678915310130e-10   1.0898757098679295e-09   7.2953023823454304e-10   1.0506541537021411e-09   7.0200269831860733e-10   1.0110139476085470e-09   6.7424732415966515e-10   9.7104582028857216e-10   6.4632767715059955e-10   9.3084106636770804e-10   6.1830757424113278e-10   8.9049132924308778e-10   5.9025093618227998e-10   8.5008838315869270e-10   5.6222163544494778e-10   8.0972391495564362e-10   5.3428334410942639e-10   7.6948930602513858e-10   5.0649938205772850e-10   7.2947541488111863e-10   4.7893256574433999e-10   6.8977236086635325e-10   4.5164505784575544e-10   6.5046930938950695e-10   4.2469821804265205e-10   6.1165425914624105e-10   3.9815245517446386e-10   5.7341383170445093e-10   3.7206708098421212e-10   5.3583306382693030e-10   3.4650016561920580e-10   4.9899520285205336e-10   3.2150839502806882e-10   4.6298150542310854e-10   2.9714693032416058e-10   4.2787103977465317e-10   2.7346926912065706e-10   3.9374049174378812e-10   2.5052710876403594e-10   3.6066397454876181e-10   2.2837021125906300e-10   3.2871284230060542e-10   2.0704626954791791e-10   2.9795550702546175e-10   1.8660077459943613e-10   2.6845725882054102e-10   1.6707688249814735e-10   2.4028008848081297e-10   1.4851528035847755e-10   2.1348251160480717e-10   1.3095404937758047e-10   1.8811939269773357e-10   1.1442852259518460e-10   1.6424176713089915e-10   9.8971133855236146e-11   1.4189665782785701e-10   8.4611252829227295e-11   1.2112688214226185e-10   7.1374998416561938e-11   1.0197084221215760e-10   5.9285018773993354e-11   8.4462288719904335e-11   4.8360219402409111e-11   6.8630042573587443e-11   3.8615408831752676e-11   5.4497650008968117e-11   3.0060809543295508e-11   4.2082930997313599e-11   2.2701338873260786e-11   3.1397352548731184e-11   1.6535473959706963e-11   2.2445104508054667e-11   1.1553303851582698e-11   1.5221645709928833e-11   7.7328172805375774e-12   9.7112470609064706e-12   5.0317730345550987e-12   5.8824735805772900e-12   3.3660233001542273e-12   3.6789844047594267e-12   2.0624904823078639e-12   2.9989000656805063e-12   2.0974293516072190e-11   1.6186882752377446e-11   3.1866436364288054e-11   3.1866436364253183e-11   4.5115272553533465e-11   4.4991398114006747e-11   6.0553230630530497e-11   6.0364524891199351e-11   7.8071138445966988e-11   7.7844297105700685e-11   9.7578512737578400e-11   9.7325883159751191e-11   1.1899259686461456e-10   1.1871938834837315e-10   1.4223369140592971e-10   1.4194149883985860e-10   1.6722290821802709e-10   1.6691143340388824e-10   1.9388103379879449e-10   1.9354894205361980e-10   2.2212792355525870e-10   2.2177328802845004e-10   2.5188216797504657e-10   2.5150271274629018e-10   2.8306091115770231e-10   2.8265415230856775e-10   3.1557976290447528e-10   3.1514309559304238e-10   3.4935277308709354e-10   3.4888352877907748e-10   3.8429245028642683e-10   3.8378793678307526e-10   4.2030981357485210e-10   4.1976734469964839e-10   4.5731447010305378e-10   4.5673138890686962e-10   4.9521471339321624e-10   4.9458841111092961e-10   5.3391763862969310e-10   5.3324557071921287e-10   5.7332927212837106e-10   5.7260897219771354e-10   6.1335471276682056e-10   6.1258380489987337e-10   6.5389828358414203e-10   6.5307449337187184e-10   6.9486369203812993e-10   6.9398485653936971e-10   7.3615419763164375e-10   7.3521827438087055e-10   7.7767278578162670e-10   7.7667786094049425e-10   8.1932234691052957e-10   8.1826664263521817e-10   8.6100585982862790e-10   8.5988774087741227e-10   9.0262657857762559e-10   9.0144455820061539e-10   9.4408822190401067e-10   9.4284096704765963e-10   9.8529516463862296e-10   9.8398150045912061e-10   1.0261526302412511e-09   1.0247715439760953e-09   1.0665668838384424e-09   1.0651175280126046e-09   1.1064454250858612e-09   1.1049271201074131e-09   1.1456971802185369e-09   1.1441094163343388e-09   1.1842326926655121e-09   1.1825751313259499e-09   1.2219643116516131e-09   1.2202367862730965e-09   1.2588063781768254e-09   1.2570088943363444e-09   1.2946754078449581e-09   1.2928081428942750e-09   1.3294902699591152e-09   1.3275535721047522e-09   1.3631723623969098e-09   1.3611667492354957e-09   1.3956457817235289e-09   1.3935719382697013e-09   1.4268374880749259e-09   1.4246962642751835e-09   1.4566774643263550e-09   1.4544698721055501e-09   1.4850988690968947e-09   1.4828260789286442e-09   1.5120381831451711e-09   1.5097015201833843e-09   1.5374353487676556e-09   1.5350362885537396e-09   1.5612339017710772e-09   1.5587740655298942e-09   1.5833810956930673e-09   1.5808622452445601e-09   1.6038280178508620e-09   1.6012520501807285e-09   1.6225296969868822e-09   1.6198986384342748e-09   1.6394452021050794e-09   1.6367612022773331e-09   1.6545377323026636e-09   1.6518030576596360e-09   1.6677746972749939e-09   1.6649917244628101e-09   1.6791277883174646e-09   1.6762989972371793e-09   1.6885730395671657e-09   1.6857010062311205e-09   1.6960908793510672e-09   1.6931782685279941e-09   1.7016661714444196e-09   1.6987157291287963e-09   1.7052882461457053e-09   1.7023027918836652e-09   1.7069509210322597e-09   1.7039333401009960e-09   1.7066525113519931e-09   1.7036057468469415e-09   1.7043958299783918e-09   1.7013228748178380e-09   1.7001881769308752e-09   1.6970920658009991e-09   1.6940413184304680e-09   1.6909251197030954e-09   1.6859714555624502e-09   1.6828382632065384e-09   1.6759991825766939e-09   1.6728521080693131e-09   1.6641494349094861e-09   1.6609915992207727e-09   1.6504514270529951e-09   1.6472859526673414e-09   1.6349385804177157e-09   1.6317685834453232e-09   1.6176484412974286e-09   1.6144770237138825e-09   1.5986225891866426e-09   1.5954528311842744e-09   1.5779065356211284e-09   1.5747414881371497e-09   1.5555496138080996e-09   1.5523922912082097e-09   1.5316048592465813e-09   1.5284582322438232e-09   1.5061288816945970e-09   1.5029958704454532e-09   1.4791817287308255e-09   1.4760651962087450e-09   1.4508267412555679e-09   1.4477294868768389e-09   1.4211304012628423e-09   1.4180551547984020e-09   1.3901621722533746e-09   1.3871115880452116e-09   1.3579943326743736e-09   1.3549709841759158e-09   1.3247018027691090e-09   1.3217081774287905e-09   1.2903619652491545e-09   1.2874004597666944e-09   1.2550544802382378e-09   1.2521273961933404e-09   1.2188610948970521e-09   1.2159706347954210e-09   1.1818654482153152e-09   1.1790137119363628e-09   1.1441528713845976e-09   1.1413418531089491e-09   1.1058101843019864e-09   1.1030417698534639e-09   1.0669254885894351e-09   1.0642014533085503e-09   1.0275879577021603e-09   1.0249099647929965e-09   9.8788762454783542e-10   9.8525722398355231e-10   9.4791516717318094e-10   9.4533379512398872e-10   9.0776169293800663e-10   9.0523067181203805e-10   8.6751852173848399e-10   8.6503906081059781e-10   8.2727696871941926e-10   8.2485016542297634e-10   7.8712812699044396e-10   7.8475496886994205e-10   7.4716265078578048e-10   7.4484401819683012e-10   7.0747053956675316e-10   7.0520720912599711e-10   6.6814092347435926e-10   6.6593357235416923e-10   6.2926185059950703e-10   6.2711106171009860e-10   5.9092007643205549e-10   5.8882634458225360e-10   5.5320085590027018e-10   5.5116459503181159e-10   5.1618773831490241e-10   5.1420928992514953e-10   4.7996236552695319e-10   4.7804200842072361e-10   4.4460427352446045e-10   4.4274223507671675e-10   4.1019069766434302e-10   4.0838716680905719e-10   3.7679638160744916e-10   3.7505152383638046e-10   3.4449338995878885e-10   3.4280736467079615e-10   3.1335092445247715e-10   3.1172390512073121e-10   2.8343514336128039e-10   2.8186734109601392e-10   2.5480898356942453e-10   2.5330067486063336e-10   2.2753198444771316e-10   2.2608354411826717e-10   2.0166011223414044e-10   2.0027205301225769e-10   1.7724558305354567e-10   1.7591860369551693e-10   1.5433668185469067e-10   1.5307172654152097e-10   1.3297757335883654e-10   1.3177590625452659e-10   1.1320809930420294e-10   1.1207139998742250e-10   9.5063553567750350e-11   9.3994041914680737e-11   7.8574422495207157e-11   7.7575026277531170e-11   6.3766071000328278e-11   6.2840657344402074e-11   5.0658343823593824e-11   4.9812049389505179e-11   3.9265032509375106e-11   3.8504751940134399e-11   2.9593126026212106e-11   2.8928264270234749e-11   2.1641705374151570e-11   2.1085388516081857e-11   1.5400240254962183e-11   1.4971358338696113e-11   1.0845872278840446e-11   1.0572702987027003e-11   7.9390671806544362e-12   7.8660483146472016e-12   6.6180014381452492e-12   6.8186591624981912e-12   5.4041829415243914e-12   7.4043120591979135e-12   3.3004539335471407e-11   2.4529409478329787e-11   4.4991398113888563e-11   4.5115272553312873e-11   5.9357068807606394e-11   5.9357068807547639e-11   7.5905439332076720e-11   7.5824020843358841e-11   9.4508420238164696e-11   9.4369237803215431e-11   1.1506400077580269e-10   1.1488118010042089e-10   1.3748185482600728e-10   1.3726377626096797e-10   1.6167712636877675e-10   1.6142843967538009e-10   1.8756731888221823e-10   1.8729023624189479e-10   2.1507059394456482e-10   2.1476573922498452e-10   2.4410481066707597e-10   2.4377176830642519e-10   2.7458697902760191e-10   2.7422464776769869e-10   3.0643295368108520e-10   3.0603977742554754e-10   3.3955727364350850e-10   3.3913139555416537e-10   3.7387309486139225e-10   3.7341246314088487e-10   4.0929218494574549e-10   4.0879462772256414e-10   4.4572496154360955e-10   4.4518824159022682e-10   4.8308056268406922e-10   4.8250241866391468e-10   5.2126694145260993e-10   5.2064511994282221e-10   5.6019097973737649e-10   5.5952326076831068e-10   5.9975861731359991e-10   5.9904283522518580e-10   6.3987499346235624e-10   6.3910905428080875e-10   6.8044459899635229e-10   6.7962649513912284e-10   7.2137143692786668e-10   7.2049925981523510e-10   7.6255919038552760e-10   7.6163114133424181e-10   8.0391139654574050e-10   8.0292579623319479e-10   8.4533162549258380e-10   8.4428692220427826e-10   8.8672366308360006e-10   8.8561843987283211e-10   9.2799169692842903e-10   9.2682467780864519e-10   9.6904050465849690e-10   9.6781055992648122e-10   1.0097756437730427e-09   1.0084817944926621e-09   1.0501036422911311e-09   1.0487450640396588e-09   1.0899321895846910e-09   1.0885082154463769e-09   1.1291703266671315e-09   1.1276804495759201e-09   1.1677286353767190e-09   1.1661725097712315e-09   1.2055194258108244e-09   1.2038968686883102e-09   1.2424569214196632e-09   1.2407679127639184e-09   1.2784574411971763e-09   1.2767021238491085e-09   1.3134395784348851e-09   1.3116182573853104e-09   1.3473243754726123e-09   1.3454375166349804e-09   1.3800354939692986e-09   1.3780837224245608e-09   1.4114993801552160e-09   1.4094834779132865e-09   1.4416454246484123e-09   1.4395663279196621e-09   1.4704061162975123e-09   1.4682649123308866e-09   1.4977171896809665e-09   1.4955151131469112e-09   1.5235177658141159e-09   1.5212561947923147e-09   1.5477504856441379e-09   1.5454309372152677e-09   1.5703616360125045e-09   1.5679857614727949e-09   1.5913012676736448e-09   1.5888708474102972e-09   1.6105233050306996e-09   1.6080402430763203e-09   1.6279856473608314e-09   1.6254519656213466e-09   1.6436502611278299e-09   1.6410680933603174e-09   1.6574832632030915e-09   1.6548548487068001e-09   1.6694549947052994e-09   1.6667826717956063e-09   1.6795400852873318e-09   1.6768262845500276e-09   1.6877175076357091e-09   1.6849647449921102e-09   1.6939706220536826e-09   1.6911814916644468e-09   1.6982872109794411e-09   1.6954643779895654e-09   1.7006595033000036e-09   1.6978056964888729e-09   1.7010841884363779e-09   1.6982021927504341e-09   1.6995624200775648e-09   1.6966550691034326e-09   1.6960998095770813e-09   1.6931699779595785e-09   1.6907064089744664e-09   1.6877570048100601e-09   1.6833966836845835e-09   1.6804306409072026e-09   1.6741894748847492e-09   1.6712097456853142e-09   1.6631079517106408e-09   1.6601174989726234e-09   1.6501795532745897e-09   1.6471813431154387e-09   1.6354359207596272e-09   1.6324329151105272e-09   1.6189128196305184e-09   1.6159079689597998e-09   1.6006500521621164e-09   1.5976462883264047e-09   1.5806913605488770e-09   1.5776915897773490e-09   1.5590843207301467e-09   1.5560914168029195e-09   1.5358802272491764e-09   1.5328970248498349e-09   1.5111339693404093e-09   1.5081632576547744e-09   1.4849038986438859e-09   1.4819484151488761e-09   1.4572516887650098e-09   1.4543141133105669e-09   1.4282421870472626e-09   1.4253251361916709e-09   1.3979432589147337e-09   1.3950492805583684e-09   1.3664256251519509e-09   1.3635571934824497e-09   1.3337626925084156e-09   1.3309222032751018e-09   1.3000303780316962e-09   1.2972201441729353e-09   1.2653069275416194e-09   1.2625291751798952e-09   1.2296727286933221e-09   1.2269295935153433e-09   1.1932101190642991e-09   1.1905036431095668e-09   1.1560031897340987e-09   1.1533353185935613e-09   1.1181375847765921e-09   1.1155101652755020e-09   1.0797002972368247e-09   1.0771150755295422e-09   1.0407794619579734e-09   1.0382380821629568e-09   1.0014641458477453e-09   9.9896814914837387e-10   9.6184413598656857e-10   9.5939496030145367e-10   9.2200972615062738e-10   9.1960870633622850e-10   8.8205150217411885e-10   8.7969987084460353e-10   8.4206012669331701e-10   8.3975901564373269e-10   8.0212612371033361e-10   7.9987656601547239e-10   7.6233966351013412e-10   7.6014259631258747e-10   7.2279034833678924e-10   7.2064661640360194e-10   6.8356699934483017e-10   6.8147735941663132e-10   6.4475744522994592e-10   6.4272257125939903e-10   6.0644831296336775e-10   6.0446880230593068e-10   5.6872482106303115e-10   5.6680120171705802e-10   5.3167057572296316e-10   5.2980331474095645e-10   4.9536737016554364e-10   4.9355688337370727e-10   4.5989498750236728e-10   4.5814165070105484e-10   4.2533100734455943e-10   4.2363516920632091e-10   3.9175061633794351e-10   3.9011261326658929e-10   3.5922642271755574e-10   3.5764659600999790e-10   3.2782827489638246e-10   3.2630699062824002e-10   2.9762308394646952e-10   2.9616075613881914e-10   2.6867464971308713e-10   2.6727176747978413e-10   2.4104349006401749e-10   2.3970064968211135e-10   2.1478667253600423e-10   2.1350461566457626e-10   1.8995764727649042e-10   1.8873730698795492e-10   1.6660607971377826e-10   1.6544863658923487e-10   1.4477768074063402e-10   1.4368463214791825e-10   1.2451403132393228e-10   1.2348727824323600e-10   1.0585239722606212e-10   1.0489435484846842e-10   8.8825527821442798e-11   8.7939268932250632e-11   7.3461430633097942e-11   7.2650875048716476e-11   5.9783109958889548e-11   5.9053279847857108e-11   4.7808253698040349e-11   4.7165624833023433e-11   3.7548847320201766e-11   3.7001842266815028e-11   2.9010689098946394e-11   2.8570383355553330e-11   2.2192780680754521e-11   2.1873932242904611e-11   1.7086588150240027e-11   1.6909164239321557e-11   1.3675285515384738e-11   1.3666755639272472e-11   1.1933735292347572e-11   1.2132411916274482e-11   1.1833782156587799e-11   1.2291996662967720e-11   1.0388628514245503e-11   1.4152932725103514e-11   4.7226416792166206e-11   3.4370189618951625e-11   6.0364524890934253e-11   6.0553230630170544e-11   7.5824020843233006e-11   7.5905439331792713e-11   9.3426091275751572e-11   9.3426091275695401e-11   1.1304174318942495e-10   1.1297817988759651e-10   1.3456564457403217e-10   1.3445032997836562e-10   1.5790384887186790e-10   1.5774465437064270e-10   1.8296813055164702e-10   1.8277017329060866e-10   2.0967306477012751e-10   2.0943944892337168e-10   2.3793435913595976e-10   2.3766670769273467e-10   2.6766784694020629e-10   2.6736670170593497e-10   2.9878887208894692e-10   2.9845399270608066e-10   3.3121192009472067e-10   3.3084250488248241e-10   3.6485040870391738e-10   3.6444525709217156e-10   3.99616584