<?xml version="1.0"?>
<VTKFile type="UnstructuredGrid"  version="0.1"  >
<UnstructuredGrid>
<Piece  NumberOfPoints="16641" NumberOfCells="32768">
<Points>
<DataArray  type="Float64"  NumberOfComponents="3"  format="ascii">0 0 0  0.0078125 0 0  0.015625 0 0  0.0234375 0 0  0.03125 0 0  0.0390625 0 0  0.046875 0 0  0.0546875 0 0  0.0625 0 0  0.0703125 0 0  0.078125 0 0  0.0859375 0 0  0.09375 0 0  0.1015625 0 0  0.109375 0 0  0.1171875 0 0  0.125 0 0  0.1328125 0 0  0.140625 0 0  0.1484375 0 0  0.15625 0 0  0.1640625 0 0  0.171875 0 0  0.1796875 0 0  0.1875 0 0  0.1953125 0 0  0.203125 0 0  0.2109375 0 0  0.21875 0 0  0.2265625 0 0  0.234375 0 0  0.2421875 0 0  0.25 0 0  0.2578125 0 0  0.265625 0 0  0.2734375 0 0  0.28125 0 0  0.2890625 0 0  0.296875 0 0  0.3046875 0 0  0.3125 0 0  0.3203125 0 0  0.328125 0 0  0.3359375 0 0  0.34375 0 0  0.3515625 0 0  0.359375 0 0  0.3671875 0 0  0.375 0 0  0.3828125 0 0  0.390625 0 0  0.3984375 0 0  0.40625 0 0  0.4140625 0 0  0.421875 0 0  0.4296875 0 0  0.4375 0 0  0.4453125 0 0  0.453125 0 0  0.4609375 0 0  0.46875 0 0  0.4765625 0 0  0.484375 0 0  0.4921875 0 0  0.5 0 0  0.5078125 0 0  0.515625 0 0  0.5234375 0 0  0.53125 0 0  0.5390625 0 0  0.546875 0 0  0.5546875 0 0  0.5625 0 0  0.5703125 0 0  0.578125 0 0  0.5859375 0 0  0.59375 0 0  0.6015625 0 0  0.609375 0 0  0.6171875 0 0  0.625 0 0  0.6328125 0 0  0.640625 0 0  0.6484375 0 0  0.65625 0 0  0.6640625 0 0  0.671875 0 0  0.6796875 0 0  0.6875 0 0  0.6953125 0 0  0.703125 0 0  0.7109375 0 0  0.71875 0 0  0.7265625 0 0  0.734375 0 0  0.7421875 0 0  0.75 0 0  0.7578125 0 0  0.765625 0 0  0.7734375 0 0  0.78125 0 0  0.7890625 0 0  0.796875 0 0  0.8046875 0 0  0.8125 0 0  0.8203125 0 0  0.828125 0 0  0.8359375 0 0  0.84375 0 0  0.8515625 0 0  0.859375 0 0  0.8671875 0 0  0.875 0 0  0.8828125 0 0  0.890625 0 0  0.8984375 0 0  0.90625 0 0  0.9140625 0 0  0.921875 0 0  0.9296875 0 0  0.9375 0 0  0.9453125 0 0  0.953125 0 0  0.9609375 0 0  0.96875 0 0  0.9765625 0 0  0.984375 0 0  0.9921875 0 0  1 0 0  0 0.0078125 0  0.0078125 0.0078125 0  0.015625 0.0078125 0  0.0234375 0.0078125 0  0.03125 0.0078125 0  0.0390625 0.0078125 0  0.046875 0.0078125 0  0.0546875 0.0078125 0  0.0625 0.0078125 0  0.0703125 0.0078125 0  0.078125 0.0078125 0  0.0859375 0.0078125 0  0.09375 0.0078125 0  0.1015625 0.0078125 0  0.109375 0.0078125 0  0.1171875 0.0078125 0  0.125 0.0078125 0  0.1328125 0.0078125 0  0.140625 0.0078125 0  0.1484375 0.0078125 0  0.15625 0.0078125 0  0.1640625 0.0078125 0  0.171875 0.0078125 0  0.1796875 0.0078125 0  0.1875 0.0078125 0  0.1953125 0.0078125 0  0.203125 0.0078125 0  0.2109375 0.0078125 0  0.21875 0.0078125 0  0.2265625 0.0078125 0  0.234375 0.0078125 0  0.2421875 0.0078125 0  0.25 0.0078125 0  0.2578125 0.0078125 0  0.265625 0.0078125 0  0.2734375 0.0078125 0  0.28125 0.0078125 0  0.2890625 0.0078125 0  0.296875 0.0078125 0  0.3046875 0.0078125 0  0.3125 0.0078125 0  0.3203125 0.0078125 0  0.328125 0.0078125 0  0.3359375 0.0078125 0  0.34375 0.0078125 0  0.3515625 0.0078125 0  0.359375 0.0078125 0  0.3671875 0.0078125 0  0.375 0.0078125 0  0.3828125 0.0078125 0  0.390625 0.0078125 0  0.3984375 0.0078125 0  0.40625 0.0078125 0  0.4140625 0.0078125 0  0.421875 0.0078125 0  0.4296875 0.0078125 0  0.4375 0.0078125 0  0.4453125 0.0078125 0  0.453125 0.0078125 0  0.4609375 0.0078125 0  0.46875 0.0078125 0  0.4765625 0.0078125 0  0.484375 0.0078125 0  0.4921875 0.0078125 0  0.5 0.0078125 0  0.5078125 0.0078125 0  0.515625 0.0078125 0  0.5234375 0.0078125 0  0.53125 0.0078125 0  0.5390625 0.0078125 0  0.546875 0.0078125 0  0.5546875 0.0078125 0  0.5625 0.0078125 0  0.5703125 0.0078125 0  0.578125 0.0078125 0  0.5859375 0.0078125 0  0.59375 0.0078125 0  0.6015625 0.0078125 0  0.609375 0.0078125 0  0.6171875 0.0078125 0  0.625 0.0078125 0  0.6328125 0.0078125 0  0.640625 0.0078125 0  0.6484375 0.0078125 0  0.65625 0.0078125 0  0.6640625 0.0078125 0  0.671875 0.0078125 0  0.6796875 0.0078125 0  0.6875 0.0078125 0  0.6953125 0.0078125 0  0.703125 0.0078125 0  0.7109375 0.0078125 0  0.71875 0.0078125 0  0.7265625 0.0078125 0  0.734375 0.0078125 0  0.7421875 0.0078125 0  0.75 0.0078125 0  0.7578125 0.0078125 0  0.765625 0.0078125 0  0.7734375 0.0078125 0  0.78125 0.0078125 0  0.7890625 0.0078125 0  0.796875 0.0078125 0  0.8046875 0.0078125 0  0.8125 0.0078125 0  0.8203125 0.0078125 0  0.828125 0.0078125 0  0.8359375 0.0078125 0  0.84375 0.0078125 0  0.8515625 0.0078125 0  0.859375 0.0078125 0  0.8671875 0.0078125 0  0.875 0.0078125 0  0.8828125 0.0078125 0  0.890625 0.0078125 0  0.8984375 0.0078125 0  0.90625 0.0078125 0  0.9140625 0.0078125 0  0.921875 0.0078125 0  0.9296875 0.0078125 0  0.9375 0.0078125 0  0.9453125 0.0078125 0  0.953125 0.0078125 0  0.9609375 0.0078125 0  0.96875 0.0078125 0  0.9765625 0.0078125 0  0.984375 0.0078125 0  0.9921875 0.0078125 0  1 0.0078125 0  0 0.015625 0  0.0078125 0.015625 0  0.015625 0.015625 0  0.0234375 0.015625 0  0.03125 0.015625 0  0.0390625 0.015625 0  0.046875 0.015625 0  0.0546875 0.015625 0  0.0625 0.015625 0  0.0703125 0.015625 0  0.078125 0.015625 0  0.0859375 0.015625 0  0.09375 0.015625 0  0.1015625 0.015625 0  0.109375 0.015625 0  0.1171875 0.015625 0  0.125 0.015625 0  0.1328125 0.015625 0  0.140625 0.015625 0  0.1484375 0.015625 0  0.15625 0.015625 0  0.1640625 0.015625 0  0.171875 0.015625 0  0.1796875 0.015625 0  0.1875 0.015625 0  0.1953125 0.015625 0  0.203125 0.015625 0  0.2109375 0.015625 0  0.21875 0.015625 0  0.2265625 0.015625 0  0.234375 0.015625 0  0.2421875 0.015625 0  0.25 0.015625 0  0.2578125 0.015625 0  0.265625 0.015625 0  0.2734375 0.015625 0  0.28125 0.015625 0  0.2890625 0.015625 0  0.296875 0.015625 0  0.3046875 0.015625 0  0.3125 0.015625 0  0.3203125 0.015625 0  0.328125 0.015625 0  0.3359375 0.015625 0  0.34375 0.015625 0  0.3515625 0.015625 0  0.359375 0.015625 0  0.3671875 0.015625 0  0.375 0.015625 0  0.3828125 0.015625 0  0.390625 0.015625 0  0.3984375 0.015625 0  0.40625 0.015625 0  0.4140625 0.015625 0  0.421875 0.015625 0  0.4296875 0.015625 0  0.4375 0.015625 0  0.4453125 0.015625 0  0.453125 0.015625 0  0.4609375 0.015625 0  0.46875 0.015625 0  0.4765625 0.015625 0  0.484375 0.015625 0  0.4921875 0.015625 0  0.5 0.015625 0  0.5078125 0.015625 0  0.515625 0.015625 0  0.5234375 0.015625 0  0.53125 0.015625 0  0.5390625 0.015625 0  0.546875 0.015625 0  0.5546875 0.015625 0  0.5625 0.015625 0  0.5703125 0.015625 0  0.578125 0.015625 0  0.5859375 0.015625 0  0.59375 0.015625 0  0.6015625 0.015625 0  0.609375 0.015625 0  0.6171875 0.015625 0  0.625 0.015625 0  0.6328125 0.015625 0  0.640625 0.015625 0  0.6484375 0.015625 0  0.65625 0.015625 0  0.6640625 0.015625 0  0.671875 0.015625 0  0.6796875 0.015625 0  0.6875 0.015625 0  0.6953125 0.015625 0  0.703125 0.015625 0  0.7109375 0.015625 0  0.71875 0.015625 0  0.7265625 0.015625 0  0.734375 0.015625 0  0.7421875 0.015625 0  0.75 0.015625 0  0.7578125 0.015625 0  0.765625 0.015625 0  0.7734375 0.015625 0  0.78125 0.015625 0  0.7890625 0.015625 0  0.796875 0.015625 0  0.8046875 0.015625 0  0.8125 0.015625 0  0.8203125 0.015625 0  0.828125 0.015625 0  0.8359375 0.015625 0  0.84375 0.015625 0  0.8515625 0.015625 0  0.859375 0.015625 0  0.8671875 0.015625 0  0.875 0.015625 0  0.8828125 0.015625 0  0.890625 0.015625 0  0.8984375 0.015625 0  0.90625 0.015625 0  0.9140625 0.015625 0  0.921875 0.015625 0  0.9296875 0.015625 0  0.9375 0.015625 0  0.9453125 0.015625 0  0.953125 0.015625 0  0.9609375 0.015625 0  0.96875 0.015625 0  0.9765625 0.015625 0  0.984375 0.015625 0  0.9921875 0.015625 0  1 0.015625 0  0 0.0234375 0  0.0078125 0.0234375 0  0.015625 0.0234375 0  0.0234375 0.0234375 0  0.03125 0.0234375 0  0.0390625 0.0234375 0  0.046875 0.0234375 0  0.0546875 0.0234375 0  0.0625 0.0234375 0  0.0703125 0.0234375 0  0.078125 0.0234375 0  0.0859375 0.0234375 0  0.09375 0.0234375 0  0.1015625 0.0234375 0  0.109375 0.0234375 0  0.1171875 0.0234375 0  0.125 0.0234375 0  0.1328125 0.0234375 0  0.140625 0.0234375 0  0.1484375 0.0234375 0  0.15625 0.0234375 0  0.1640625 0.0234375 0  0.171875 0.0234375 0  0.1796875 0.0234375 0  0.1875 0.0234375 0  0.1953125 0.0234375 0  0.203125 0.0234375 0  0.2109375 0.0234375 0  0.21875 0.0234375 0  0.2265625 0.0234375 0  0.234375 0.0234375 0  0.2421875 0.0234375 0  0.25 0.0234375 0  0.2578125 0.0234375 0  0.265625 0.0234375 0  0.2734375 0.0234375 0  0.28125 0.0234375 0  0.2890625 0.0234375 0  0.296875 0.0234375 0  0.3046875 0.0234375 0  0.3125 0.0234375 0  0.3203125 0.0234375 0  0.328125 0.0234375 0  0.3359375 0.0234375 0  0.34375 0.0234375 0  0.3515625 0.0234375 0  0.359375 0.0234375 0  0.3671875 0.0234375 0  0.375 0.0234375 0  0.3828125 0.0234375 0  0.390625 0.0234375 0  0.3984375 0.0234375 0  0.40625 0.0234375 0  0.4140625 0.0234375 0  0.421875 0.0234375 0  0.4296875 0.0234375 0  0.4375 0.0234375 0  0.4453125 0.0234375 0  0.453125 0.0234375 0  0.4609375 0.0234375 0  0.46875 0.0234375 0  0.4765625 0.0234375 0  0.484375 0.0234375 0  0.4921875 0.0234375 0  0.5 0.0234375 0  0.5078125 0.0234375 0  0.515625 0.0234375 0  0.5234375 0.0234375 0  0.53125 0.0234375 0  0.5390625 0.0234375 0  0.546875 0.0234375 0  0.5546875 0.0234375 0  0.5625 0.0234375 0  0.5703125 0.0234375 0  0.578125 0.0234375 0  0.5859375 0.0234375 0  0.59375 0.0234375 0  0.6015625 0.0234375 0  0.609375 0.0234375 0  0.6171875 0.0234375 0  0.625 0.0234375 0  0.6328125 0.0234375 0  0.640625 0.0234375 0  0.6484375 0.0234375 0  0.65625 0.0234375 0  0.6640625 0.0234375 0  0.671875 0.0234375 0  0.6796875 0.0234375 0  0.6875 0.0234375 0  0.6953125 0.0234375 0  0.703125 0.0234375 0  0.7109375 0.0234375 0  0.71875 0.0234375 0  0.7265625 0.0234375 0  0.734375 0.0234375 0  0.7421875 0.0234375 0  0.75 0.0234375 0  0.7578125 0.0234375 0  0.765625 0.0234375 0  0.7734375 0.0234375 0  0.78125 0.0234375 0  0.7890625 0.0234375 0  0.796875 0.0234375 0  0.8046875 0.0234375 0  0.8125 0.0234375 0  0.8203125 0.0234375 0  0.828125 0.0234375 0  0.8359375 0.0234375 0  0.84375 0.0234375 0  0.8515625 0.0234375 0  0.859375 0.0234375 0  0.8671
[...]
<CellData  Scalars="f_130656"> 
<DataArray  type="Float64"  Name="f_130656"  format="ascii">3.7132477732274602e-08   3.7132477732274675e-08   3.7074502766428511e-08   3.7096814369256832e-08   3.6972022988591511e-08   3.7016591529519238e-08   3.6825282545667099e-08   3.6891999802106234e-08   3.6634632471733459e-08   3.6723336916994651e-08   3.6400529704602195e-08   3.6511006890827870e-08   3.6123535923767548e-08   3.6255518992825174e-08   3.5804316167831375e-08   3.5957486488809014e-08   3.5443637217784509e-08   3.5617625149497329e-08   3.5042365742708589e-08   3.5236751519333075e-08   3.4601466208886970e-08   3.4815780946599825e-08   3.4121998555632641e-08   3.4355725377767094e-08   3.3605115642454171e-08   3.3857690920494942e-08   3.3052060473174260e-08   3.3322875180570798e-08   3.2464163203364287e-08   3.2752564378893529e-08   3.1842837938095283e-08   3.2148130255255482e-08   3.1189579327597667e-08   3.1511026766232282e-08   3.0505958968944654e-08   3.0842786585064634e-08   2.9793621622358931e-08   3.0145017411905523e-08   2.9054281251232570e-08   2.9419398103271787e-08   2.8289716895378695e-08   2.8667674630025145e-08   2.7501768387415224e-08   2.7891655873568718e-08   2.6692331922621712e-08   2.7093209270409680e-08   2.5863355492898989e-08   2.6274256315536399e-08   2.5016834195853160e-08   2.5436767935472683e-08   2.4154805430292861e-08   2.4582759742118925e-08   2.3279343989712987e-08   2.3714287178871318e-08   2.2392557065591295e-08   2.2833440570617967e-08   2.1496579172519375e-08   2.1942340089649542e-08   2.0593567007428184e-08   2.1043130649520220e-08   1.9685694255261442e-08   2.0137976739225165e-08   1.8775146353630106e-08   1.9229057210109452e-08   1.7864115229071776e-08   1.8318560028084058e-08   1.6954794017563356e-08   1.7408677003782919e-08   1.6049371782076703e-08   1.6501598513373565e-08   1.5150028239826939e-08   1.5599508222759348e-08   1.4258928511974818e-08   1.4704577827826582e-08   1.3378217908418709e-08   1.3818961823475691e-08   1.2510016760240819e-08   1.2944792314015187e-08   1.1656415312263261e-08   1.2084173877424099e-08   1.0819468688025328e-08   1.1239178495859724e-08   1.0001191939313246e-08   1.0411840564639961e-08   9.2035551921620002e-09   9.6041519916922678e-09   8.4284789010479285e-09   8.8180573993387072e-09   7.6778292226912412e-09   8.0554494399224058e-09   6.9534135206159404e-09   7.3181642365803139e-09   6.2569760113213903e-09   6.6079769601803521e-09   5.5901935625250625e-09   5.9265975530357336e-09   4.9546716536313063e-09   5.2756666097321381e-09   4.3519405081420686e-09   4.6567514249783549e-09   3.7834514073366849e-09   4.0713422180134671e-09   3.2505731941071257e-09   3.5208485426730900e-09   2.7545889753641205e-09   3.0065958917455918e-09   2.2966930309680026e-09   2.5298225038220962e-09   1.8779879366349122e-09   2.0916763803238374e-09   1.4994819077414331e-09   1.6932125199025716e-09   1.1620863704385106e-09   1.3353903768719771e-09   8.6661376592626598e-10   1.0190715497930675e-09   6.1377559317196894e-10   7.4501770579545492e-10   4.0418069480098576e-10   5.1388874562136015e-10   2.3833379028138655e-10   3.2624121382941653e-10   1.1663425994131696e-10   1.8252695797307832e-10   3.9375182747937939e-11   8.3092039999417661e-11   6.7426301672943946e-12   2.8175902483413778e-11   1.8815217806444372e-11   1.7910791708597567e-11   7.5563915918345752e-11   5.2321438984768623e-11   1.7685211922778277e-10   1.3132500097310689e-10   3.2243597590575784e-10   2.5473125915729438e-10   5.1196497490495105e-10   4.2224307798495882e-10   7.4498279023848472e-10   6.3345712057480718e-10   1.0209283801655783e-09   8.8786482026124880e-10   1.3391373386389092e-09   1.1848536056391173e-09   1.6988434957571420e-09   1.5237083761575231e-09   2.0991807633607892e-09   1.9036132247022245e-09   2.5391852213292685e-09   2.3236534030162556e-09   3.0177974395545643e-09   2.7828175252386798e-09   3.5338650299851404e-09   3.2800000042157680e-09   4.0861454225974926e-09   3.8140037147586531e-09   4.6733088586134631e-09   4.3835428773831082e-09   5.2939415937315713e-09   4.9872461556348943e-09   5.9465493036725402e-09   5.6236599594835244e-09   6.6295606838211109e-09   6.2912519468635718e-09   7.3413312342896116e-09   6.9884147149013081e-09   8.0801472212911963e-09   7.7134696719508416e-09   8.8442298052692994e-09   8.4646710810941843e-09   9.6317393258328582e-09   9.2402102653654560e-09   1.0440779733178094e-08   1.0038219964577278e-08   1.1269403155319900e-08   1.0856778833220290e-08   1.2115614590113164e-08   1.1693916068640968e-08   1.2977376710774934e-08   1.2547616158292190e-08   1.3852614773312104e-08   1.3415823734680547e-08   1.4739221614034520e-08   1.4296448526232129e-08   1.5635062725111773e-08   1.5187370392224599e-08   1.6537981395940568e-08   1.6086444429586648e-08   1.7445803907929682e-08   1.6991506139319158e-08   1.8356344770187451e-08   1.7900376640018501e-08   1.9267411983489434e-08   1.8810867916005473e-08   2.0176812319855088e-08   1.9720788087358098e-08   2.1082356604975552e-08   2.0627946689200991e-08   2.1981864990804946e-08   2.1530159947449179e-08   2.2873172205576552e-08   2.2425256038390431e-08   2.3754132768605516e-08   2.3311080319350269e-08   2.4622626157298142e-08   2.4185500517869335e-08   2.5476561913927774e-08   2.5046411866880362e-08   2.6313884679859755e-08   2.5891742173499468e-08   2.7132579145096397e-08   2.6719456809235845e-08   2.7930674901194519e-08   2.7527563609564120e-08   2.8706251185882938e-08   2.8314117671045933e-08   2.9457441507922541e-08   2.9077226034484497e-08   3.0182438141065078e-08   2.9815052242753034e-08   3.0879496476256650e-08   3.0525820762346885e-08   3.1546939221626953e-08   3.1207821257995406e-08   3.2183160440073310e-08   3.1859412709979919e-08   3.2786629414750614e-08   3.2479027364278557e-08   3.3355894333078273e-08   3.3065174505942713e-08   3.3889585780377931e-08   3.3616444046588550e-08   3.4386420034678127e-08   3.4131509917332734e-08   3.4845202154649512e-08   3.4609133258898421e-08   3.5264828853140839e-08   3.5048165401096908e-08   3.5644291149205060e-08   3.5447550624331796e-08   3.5982676791924270e-08   3.5806328696171504e-08   3.6279172449685866e-08   3.6123637176350466e-08   3.6533065658675145e-08   3.6398713483688991e-08   3.6743746523954894e-08   3.6630896717995709e-08   3.6910709164814065e-08   3.6819629228289566e-08   3.7033552890374791e-08   3.6964457912905875e-08   3.7111983071821134e-08   3.7065035217169132e-08   3.7145811593429221e-08   3.7121119709188116e-08   3.7096814369256924e-08   3.7074502766428709e-08   3.7038971405201033e-08   3.7038971405201112e-08   3.6936706280335997e-08   3.6959016916788439e-08   3.6790263786553023e-08   3.6834830410837850e-08   3.6599994775552692e-08   3.6666709181597892e-08   3.6366355553756961e-08   3.6455056232448296e-08   3.6089906853649020e-08   3.6200379376056064e-08   3.5771312509849662e-08   3.5903290038266163e-08   3.5411337871900389e-08   3.5564501797417322e-08   3.5010847967003037e-08   3.5184828672052952e-08   3.4570805420571638e-08   3.4765183164575235e-08   3.4092268140836497e-08   3.4306574066830669e-08   3.3576386773586952e-08   3.3810104033373015e-08   3.3024401933335113e-08   3.3276966928436635e-08   3.2437641217642142e-08   3.2708444953083901e-08   3.1817516011817630e-08   3.2105905559448860e-08   3.1165518091672590e-08   3.1470798159498964e-08   3.0483216032503994e-08   3.0804650636266432e-08   2.9772251432976416e-08   3.0109065665898531e-08   2.9034334962956600e-08   2.9385716859452427e-08   2.8271242244854646e-08   2.8636344733644792e-08   2.7484809578353974e-08   2.7862752520317083e-08   2.6676929518863139e-08   2.7066801824690203e-08   2.5849546320302390e-08   2.6250408142859003e-08   2.5004651253245930e-08   2.5415536249346269e-08   2.4144277809667607e-08   2.4564195465808432e-08   2.3270496805873871e-08   2.3698434822334328e-08   2.2385411395370234e-08   2.2820338122907684e-08   2.1491152003771618e-08   2.1932018927040218e-08   2.0589871197852612e-08   2.1035615459599187e-08   1.9683738501185691e-08   2.0133285461068138e-08   1.8774935168826905e-08   1.9227200990744370e-08   1.7865648933645272e-08   1.8319543195312829e-08   1.6958068736943814e-08   1.7412497055430081e-08   1.6054379456099612e-08   1.6508246123009146e-08   1.5156756641910866e-08   1.5608967261813219e-08   1.4267361278324562e-08   1.4716825404143079e-08   1.3388334577186863e-08   1.3833968336128342e-08   1.2521792820560075e-08   1.2962521524293651e-08   1.1669822263034198e-08   1.2104582995801110e-08   1.0834474106308612e-08   1.1262218284756524e-08   1.0017759558164859e-08   1.0437455456701387e-08   9.2216449877138110e-09   9.6322802233220395e-09   8.4480471886600180e-09   8.8486311591654716e-09   7.6988287619060382e-09   8.0883950318202481e-09   6.9757936286750773e-09   7.3534022568821970e-09   6.2806826849773908e-09   6.6454224886322247e-09   5.6151696078514582e-09   5.9661603570456690e-09   4.9808568235177001e-09   5.3172513614169342e-09   4.3792716471438963e-09   4.7002579304853000e-09   3.8118626035319211e-09   4.1166656585723075e-09   3.2799959375979328e-09   3.5678797267903541e-09   2.7849523230348711e-09   3.0552215179319507e-09   2.3279237771096343e-09   2.5799254332267715e-09   1.9100107890195938e-09   2.1431359186277526e-09   1.5322196687300874e-09   1.7459047077642111e-09   1.1954601226862174e-09   1.3891882882549236e-09   9.0054306222500052e-10   1.0738455974451822e-09   6.4817864999179035e-10   8.0063595314117670e-10   4.3897458905106746e-10   5.7021722432216299e-10   2.7343465882623105e-10   3.8314424624223045e-10   1.5195750138181663e-10   2.3986748373735805e-10   7.4835660990690127e-11   1.4073194595675199e-10   4.2254879288301778e-11   8.5976355143212642e-11   5.4293647715496779e-11   7.5732571455046683e-11   1.1092301832922574e-10   1.1002527522258307e-10   2.1200667343856445e-10   1.8877190740012991e-10   3.5730125389342275e-10   3.1178286836024771e-10   5.4645694524101616e-10   4.7876197455317225e-10   7.7901832033374755e-10   6.8930717192521529e-10   1.0544254363563091e-09   9.4291150438112889e-10   1.3720151836339306e-09   1.2389643349546035e-09   1.7310228829690131e-09   1.5767528167505042e-09   2.1305841276532968e-09   1.9554636100968252e-09   2.5697368657203563e-09   2.3741848418068989e-09   3.0474237174307711e-09   2.8319083017707975e-09   3.5624945223736858e-09   3.3275318716393490e-09   4.1137091100926238e-09   3.8598621797230911e-09   4.6997402875130070e-09   4.4276174757058540e-09   5.3191770360144046e-09   5.0294307182543035e-09   5.9705279104038983e-09   5.6638528680737307e-09   6.6522246316371722e-09   6.3293563784961159e-09   7.3626258645867537e-09   7.0243388751503349e-09   8.1000211718097541e-09   7.7471270158876355e-09   8.8626351337314716e-09   8.4959805216489057e-09   9.6486316253480442e-09   9.2690963685194806e-09   1.0456118239147145e-08   1.0064613130972867e-08   1.1283150843549143e-08   1.0880615465684232e-08   1.2127738265937788e-08   1.1715138725269245e-08   1.2987847088941663e-08   1.2566173690688007e-08   1.3861406548465504e-08   1.3431671411048250e-08   1.4746313521601550e-08   1.4309548139003465e-08   1.5640437592468607e-08   1.5197690349966388e-08   1.6541626183706931e-08   1.6093959832968576e-08   1.7447709741323247e-08   1.6996198840963595e-08   1.8356506960329369e-08   1.7902235288071937e-08   1.9265830038638557e-08   1.8809887981339148e-08   2.0173489946518729e-08   1.9716971874334885e-08   2.1077301698924794e-08   2.0621303329959610e-08   2.1975089617973889e-08   2.1520705379759109e-08   2.2864692572932762e-08   2.2413012967091391e-08   2.3743969185029186e-08   2.3296078161481330e-08   2.4610802984588640e-08   2.4167775331633032e-08   2.5463107508044193e-08   2.5026006264599173e-08   2.6298831322530924e-08   2.5868705218782823e-08   2.7115962965980282e-08   2.6693843898592452e-08   2.7912535790764857e-08   2.7499436338754297e-08   2.8686632699253272e-08   2.8283543686511462e-08   2.9436390759852424e-08   2.9044278870178081e-08   3.0160005692376330e-08   2.9779811142797697e-08   3.0855736211970912e-08   3.0488370489934074e-08   3.1521908221096821e-08   3.1168251890996633e-08   3.2156918839416515e-08   3.1817819423755766e-08   3.2759240261950947e-08   3.2435510202220814e-08   3.3327423436081708e-08   3.3019838138304554e-08   3.3860101548570812e-08   3.3569397518197206e-08   3.4355993314141142e-08   3.4082866384803268e-08   3.4813906057613354e-08   3.4559009718008433e-08   3.5232738582076447e-08   3.4996682405008609e-08   3.5611483816044742e-08   3.5394831993414259e-08   3.5949231232962956e-08   3.5752501220230961e-08   3.6245169036833918e-08   3.6068830310227388e-08   3.6498586107997212e-08   3.6343059037443805e-08   3.6708873703056647e-08   3.6574528543563571e-08   3.6875526902266490e-08   3.6762682906173682e-08   3.6998145795282280e-08   3.6907070447601104e-08   3.7076436389507691e-08   3.7007344768542347e-08   3.7110211212943829e-08   3.7063265479482264e-08   3.7016591529519277e-08   3.6972022988591617e-08   3.6959016916787955e-08   3.6936706280335832e-08   3.6857211051894666e-08   3.6857211051894699e-08   3.6711417860500951e-08   3.6733727551681074e-08   3.6521986846130457e-08   3.6566551601375166e-08   3.6289372457254935e-08   3.6356084092866216e-08   3.6014133076584372e-08   3.6102830106929712e-08   3.5696929714986188e-08   3.5807397735855573e-08   3.5338524440167517e-08   3.5470496639876943e-08   3.4939778553654175e-08   3.5092936350656627e-08   3.4501650524579218e-08   3.4675624330010778e-08   3.4025193687161871e-08   3.4219563790488999e-08   3.3511553708384304e-08   3.3725851284006464e-08   3.2961965832466204e-08   3.3195674064836438e-08   3.2377751909048938e-08   3.2630307233603697e-08   3.1760317212395523e-08   3.2031110669282785e-08   3.1111147059320487e-08   3.1399525756679705e-08   3.0431803234093719e-08   3.0737071917331215e-08   2.9723920228910094e-08   3.0045342952220296e-08   2.8989201309060819e-08   2.9326003205118175e-08   2.8229414412229780e-08   2.8580783555820231e-08   2.7446387891852006e-08   2.7811477252928015e-08   2.6642006114784204e-08   2.7019935596235507e-08   2.5818204923884087e-08   2.6208063479125000e-08   2.4976966976457727e-08   2.5377814801699682e-08   2.4120316969783329e-08   2.4531187765738225e-08   2.3250316765269692e-08   2.3670220062791310e-08   2.2369060422911271e-08   2.2796983967011181e-08   2.1478669158099666e-08   2.1913581344554026e-08   2.0581286232899533e-08   2.1022138591587715e-08   1.9679071794084084e-08   2.0124801513075811e-08   1.8774197670432811e-08   1.9223730154728210e-08   1.7868842141755505e-08   1.8321093600517923e-08   1.6965184692298893e-08   1.7419064748332892e-08   1.6065400761168672e-08   1.6519815076362451e-08   1.5171656502392355e-08   1.5625509412808610e-08   1.4286103567316117e-08   1.4738300721528111e-08   1.3410873921810147e-08   1.3860324916185030e-08   1.2548074710874583e-08   1.2993695715421374e-08   1.1699783182946625e-08   1.2140499551391954e-08   1.0868041686190337e-08   1.1302790543999166e-08   1.0054852748781700e-08   1.0482585552892809e-08   9.2621742550861241e-09   9.6818593191934871e-09   8.4919147293498026e-09   8.9025397086063255e-09   7.7459287382181538e-09   8.1465030674259738e-09   7.0260124232315712e-09   7.4155697026018248e-09   6.3338991740195407e-09   6.7114994967780514e-09   5.6712554526411458e-09   6.0359876688374209e-09   5.0396767791087690e-09   5.3906606902090737e-09   4.4406838877998395e-09   4.7770723667454901e-09   3.8757190640000501e-09   4.1967000956445010e-09   3.3461426694193596e-09   3.6509413063921128e-09   2.8532298650265779e-09   3.1411100943520573e-09   2.3981675391332859e-09   2.6684340550735099e-09   1.9820514481208184e-09   2.2340513269796154e-09   1.6058835766702941e-09   1.8390078495274931e-09   1.2705697239053274e-09   1.4842548434798287e-09   9.7691732122534072e-10   1.1706465193399615e-09   7.2563348711224625e-10   8.9893801948130117e-10   5.1732332357701366e-10   6.6978359892655112e-10   3.5248845837267047e-10   4.8373504916022339e-10   2.3152583647352484e-10   3.4124036877565161e-10   1.5472676373031863e-10   2.4264268416115239e-10   1.2227620501903905e-10   1.8817942281645064e-10   1.3425233856119706e-10   1.7798174130553643e-10   1.9062636749961137e-10   2.1207420921388462e-10   2.9126258917298073e-10   2.9037474987558094e-10   4.3591872193457720e-10   4.1269483801374786e-10   6.2424648872031816e-10   5.7873995381806221e-10   8.5579245595748459e-10   7.8811029236125936e-10   1.1299991258006417e-09   1.0403017266512820e-09   1.4462062790541919e-09   1.3347070219936424e-09   1.8036525655549309e-09   1.6706172987413538e-09   2.2014773381661198e-09   2.0472237399021871e-09   2.6387227259973128e-09   2.4636195394998955e-09   3.1143359417953752e-09   2.9188020869730789e-09   3.6271718180111210e-09   3.4116753823735448e-09   4.1759955653947575e-09   3.9410526765234535e-09   4.7594857474695122e-09   4.5056593297923636e-09   5.3762374637347237e-09   5.1041358825630559e-09   6.0247657339108209e-09   5.7350413300425932e-09   6.7035090750860436e-09   6.3968565934849195e-09   7.4108332631250947e-09   7.0879881794635934e-09   8.1450352692991659e-09   7.8067720184209865e-09   8.9043473626387099e-09   8.5514774731780432e-09   9.6869413680955682e-09   9.3203115077834405e-09   1.0490933070342271e-08   1.0111423006665725e-08   1.1314386752449338e-08   1.0922907233635585e-08   1.2155319858671879e-08   1.1752810420052508e-08   1.3011707769955696e-08   1.2599134471047594e-08   1.3881488680786383e-08   1.3459841778481272e-08   1.4762568565519798e-08   1.4332860129059752e-08   1.5652826222292477e-08   1.5216087695728253e-08   1.6550118382324041e-08   1.6107398100367585e-08   1.7452284872344774e-08   1.7004645535556124e-08   1.8357153817627837e-08   1.7905669933088105e-08   1.9262546873171808e-08   1.8808302166749966e-08   2.0166284470353221e-08   1.9710369276854837e-08   2.1066191066485022e-08   2.0609699703907418e-08   2.1960100384536433e-08   2.1504128518851884e-08   2.2845860630467785e-08   2.2391502637196886e-08   2.3721339675549397e-08   2.3269686004549700e-08   2.4584430191219628e-08   2.4136564740994818e-08   2.5433054724061615e-08   2.4990052231958752e-08   2.6265170698704053e-08   2.5828094153263864e-08   2.7078775336565423e-08   2.6648673418276113e-08   2.7871910478596377e-08   2.7449815035217957e-08   2.8642667300385779e-08   2.8229590862924414e-08   2.9389190908264867e-08   2.8986124253603658e-08   3.0109684805346063e-08   2.9717594571382676e-08   3.0802415216698150e-08   3.0422241575759019e-08   3.1465715263252676e-08   3.1098369659385159e-08   3.2097988974346092e-08   3.1744351929944389e-08   3.2697715129245361e-08   3.2358634126303202e-08   3.3263450918356446e-08   3.2939738359436491e-08   3.3793835415278656e-08   3.3486266669142329e-08   3.4287592851298140e-08   3.3996904387885330e-08   3.4743535684390462e-08   3.4470423303660156e-08   3.5160567455246272e-08   3.4905684614135878e-08   3.5537685423352718e-08   3.5301641664906254e-08   3.5873982976597822e-08   3.5657342465030660e-08   3.6168651808336819e-08   3.5971931973593501e-08   3.6420983856238260e-08   3.6244654151305542e-08   3.6630372997478364e-08   3.6474853771467891e-08   3.6796316494825129e-08   3.6661977984599413e-08   3.6918416187777662e-08   3.6805577630668115e-08   3.6996379423292878e-08   3.6905308293378323e-08   3.7030019732036218e-08   3.6960931102507329e-08   3.6891999802105678e-08   3.6825282545667046e-08   3.6834830410837162e-08   3.6790263786552434e-08   3.6733727551681220e-08   3.6711417860500951e-08   3.6588933456250081e-08   3.6588933456250041e-08   3.6400795307793450e-08   3.6423104080140601e-08   3.6169764531694006e-08   3.6214327476416081e-08   3.5896395777177269e-08   3.5963104738605976e-08   3.5581345618978578e-08   3.5670039140497630e-08   3.5225370998120052e-08   3.5335834705577121e-08   3.4829327413060655e-08   3.4961294525900468e-08   3.4394166869126707e-08   3.4547318838000202e-08   3.3920935592928296e-08   3.4094902862236173e-08   3.3410771518231933e-08   3.3605134411755016e-08   3.2864901549878531e-08   3.3079191277346836e-08   3.228463