<?xml version="1.0"?>
<VTKFile type="UnstructuredGrid"  version="0.1"  >
<UnstructuredGrid>
<Piece  NumberOfPoints="16641" NumberOfCells="32768">
<Points>
<DataArray  type="Float64"  NumberOfComponents="3"  format="ascii">0 0 0  0.0078125 0 0  0.015625 0 0  0.0234375 0 0  0.03125 0 0  0.0390625 0 0  0.046875 0 0  0.0546875 0 0  0.0625 0 0  0.0703125 0 0  0.078125 0 0  0.0859375 0 0  0.09375 0 0  0.1015625 0 0  0.109375 0 0  0.1171875 0 0  0.125 0 0  0.1328125 0 0  0.140625 0 0  0.1484375 0 0  0.15625 0 0  0.1640625 0 0  0.171875 0 0  0.1796875 0 0  0.1875 0 0  0.1953125 0 0  0.203125 0 0  0.2109375 0 0  0.21875 0 0  0.2265625 0 0  0.234375 0 0  0.2421875 0 0  0.25 0 0  0.2578125 0 0  0.265625 0 0  0.2734375 0 0  0.28125 0 0  0.2890625 0 0  0.296875 0 0  0.3046875 0 0  0.3125 0 0  0.3203125 0 0  0.328125 0 0  0.3359375 0 0  0.34375 0 0  0.3515625 0 0  0.359375 0 0  0.3671875 0 0  0.375 0 0  0.3828125 0 0  0.390625 0 0  0.3984375 0 0  0.40625 0 0  0.4140625 0 0  0.421875 0 0  0.4296875 0 0  0.4375 0 0  0.4453125 0 0  0.453125 0 0  0.4609375 0 0  0.46875 0 0  0.4765625 0 0  0.484375 0 0  0.4921875 0 0  0.5 0 0  0.5078125 0 0  0.515625 0 0  0.5234375 0 0  0.53125 0 0  0.5390625 0 0  0.546875 0 0  0.5546875 0 0  0.5625 0 0  0.5703125 0 0  0.578125 0 0  0.5859375 0 0  0.59375 0 0  0.6015625 0 0  0.609375 0 0  0.6171875 0 0  0.625 0 0  0.6328125 0 0  0.640625 0 0  0.6484375 0 0  0.65625 0 0  0.6640625 0 0  0.671875 0 0  0.6796875 0 0  0.6875 0 0  0.6953125 0 0  0.703125 0 0  0.7109375 0 0  0.71875 0 0  0.7265625 0 0  0.734375 0 0  0.7421875 0 0  0.75 0 0  0.7578125 0 0  0.765625 0 0  0.7734375 0 0  0.78125 0 0  0.7890625 0 0  0.796875 0 0  0.8046875 0 0  0.8125 0 0  0.8203125 0 0  0.828125 0 0  0.8359375 0 0  0.84375 0 0  0.8515625 0 0  0.859375 0 0  0.8671875 0 0  0.875 0 0  0.8828125 0 0  0.890625 0 0  0.8984375 0 0  0.90625 0 0  0.9140625 0 0  0.921875 0 0  0.9296875 0 0  0.9375 0 0  0.9453125 0 0  0.953125 0 0  0.9609375 0 0  0.96875 0 0  0.9765625 0 0  0.984375 0 0  0.9921875 0 0  1 0 0  0 0.0078125 0  0.0078125 0.0078125 0  0.015625 0.0078125 0  0.0234375 0.0078125 0  0.03125 0.0078125 0  0.0390625 0.0078125 0  0.046875 0.0078125 0  0.0546875 0.0078125 0  0.0625 0.0078125 0  0.0703125 0.0078125 0  0.078125 0.0078125 0  0.0859375 0.0078125 0  0.09375 0.0078125 0  0.1015625 0.0078125 0  0.109375 0.0078125 0  0.1171875 0.0078125 0  0.125 0.0078125 0  0.1328125 0.0078125 0  0.140625 0.0078125 0  0.1484375 0.0078125 0  0.15625 0.0078125 0  0.1640625 0.0078125 0  0.171875 0.0078125 0  0.1796875 0.0078125 0  0.1875 0.0078125 0  0.1953125 0.0078125 0  0.203125 0.0078125 0  0.2109375 0.0078125 0  0.21875 0.0078125 0  0.2265625 0.0078125 0  0.234375 0.0078125 0  0.2421875 0.0078125 0  0.25 0.0078125 0  0.2578125 0.0078125 0  0.265625 0.0078125 0  0.2734375 0.0078125 0  0.28125 0.0078125 0  0.2890625 0.0078125 0  0.296875 0.0078125 0  0.3046875 0.0078125 0  0.3125 0.0078125 0  0.3203125 0.0078125 0  0.328125 0.0078125 0  0.3359375 0.0078125 0  0.34375 0.0078125 0  0.3515625 0.0078125 0  0.359375 0.0078125 0  0.3671875 0.0078125 0  0.375 0.0078125 0  0.3828125 0.0078125 0  0.390625 0.0078125 0  0.3984375 0.0078125 0  0.40625 0.0078125 0  0.4140625 0.0078125 0  0.421875 0.0078125 0  0.4296875 0.0078125 0  0.4375 0.0078125 0  0.4453125 0.0078125 0  0.453125 0.0078125 0  0.4609375 0.0078125 0  0.46875 0.0078125 0  0.4765625 0.0078125 0  0.484375 0.0078125 0  0.4921875 0.0078125 0  0.5 0.0078125 0  0.5078125 0.0078125 0  0.515625 0.0078125 0  0.5234375 0.0078125 0  0.53125 0.0078125 0  0.5390625 0.0078125 0  0.546875 0.0078125 0  0.5546875 0.0078125 0  0.5625 0.0078125 0  0.5703125 0.0078125 0  0.578125 0.0078125 0  0.5859375 0.0078125 0  0.59375 0.0078125 0  0.6015625 0.0078125 0  0.609375 0.0078125 0  0.6171875 0.0078125 0  0.625 0.0078125 0  0.6328125 0.0078125 0  0.640625 0.0078125 0  0.6484375 0.0078125 0  0.65625 0.0078125 0  0.6640625 0.0078125 0  0.671875 0.0078125 0  0.6796875 0.0078125 0  0.6875 0.0078125 0  0.6953125 0.0078125 0  0.703125 0.0078125 0  0.7109375 0.0078125 0  0.71875 0.0078125 0  0.7265625 0.0078125 0  0.734375 0.0078125 0  0.7421875 0.0078125 0  0.75 0.0078125 0  0.7578125 0.0078125 0  0.765625 0.0078125 0  0.7734375 0.0078125 0  0.78125 0.0078125 0  0.7890625 0.0078125 0  0.796875 0.0078125 0  0.8046875 0.0078125 0  0.8125 0.0078125 0  0.8203125 0.0078125 0  0.828125 0.0078125 0  0.8359375 0.0078125 0  0.84375 0.0078125 0  0.8515625 0.0078125 0  0.859375 0.0078125 0  0.8671875 0.0078125 0  0.875 0.0078125 0  0.8828125 0.0078125 0  0.890625 0.0078125 0  0.8984375 0.0078125 0  0.90625 0.0078125 0  0.9140625 0.0078125 0  0.921875 0.0078125 0  0.9296875 0.0078125 0  0.9375 0.0078125 0  0.9453125 0.0078125 0  0.953125 0.0078125 0  0.9609375 0.0078125 0  0.96875 0.0078125 0  0.9765625 0.0078125 0  0.984375 0.0078125 0  0.9921875 0.0078125 0  1 0.0078125 0  0 0.015625 0  0.0078125 0.015625 0  0.015625 0.015625 0  0.0234375 0.015625 0  0.03125 0.015625 0  0.0390625 0.015625 0  0.046875 0.015625 0  0.0546875 0.015625 0  0.0625 0.015625 0  0.0703125 0.015625 0  0.078125 0.015625 0  0.0859375 0.015625 0  0.09375 0.015625 0  0.1015625 0.015625 0  0.109375 0.015625 0  0.1171875 0.015625 0  0.125 0.015625 0  0.1328125 0.015625 0  0.140625 0.015625 0  0.1484375 0.015625 0  0.15625 0.015625 0  0.1640625 0.015625 0  0.171875 0.015625 0  0.1796875 0.015625 0  0.1875 0.015625 0  0.1953125 0.015625 0  0.203125 0.015625 0  0.2109375 0.015625 0  0.21875 0.015625 0  0.2265625 0.015625 0  0.234375 0.015625 0  0.2421875 0.015625 0  0.25 0.015625 0  0.2578125 0.015625 0  0.265625 0.015625 0  0.2734375 0.015625 0  0.28125 0.015625 0  0.2890625 0.015625 0  0.296875 0.015625 0  0.3046875 0.015625 0  0.3125 0.015625 0  0.3203125 0.015625 0  0.328125 0.015625 0  0.3359375 0.015625 0  0.34375 0.015625 0  0.3515625 0.015625 0  0.359375 0.015625 0  0.3671875 0.015625 0  0.375 0.015625 0  0.3828125 0.015625 0  0.390625 0.015625 0  0.3984375 0.015625 0  0.40625 0.015625 0  0.4140625 0.015625 0  0.421875 0.015625 0  0.4296875 0.015625 0  0.4375 0.015625 0  0.4453125 0.015625 0  0.453125 0.015625 0  0.4609375 0.015625 0  0.46875 0.015625 0  0.4765625 0.015625 0  0.484375 0.015625 0  0.4921875 0.015625 0  0.5 0.015625 0  0.5078125 0.015625 0  0.515625 0.015625 0  0.5234375 0.015625 0  0.53125 0.015625 0  0.5390625 0.015625 0  0.546875 0.015625 0  0.5546875 0.015625 0  0.5625 0.015625 0  0.5703125 0.015625 0  0.578125 0.015625 0  0.5859375 0.015625 0  0.59375 0.015625 0  0.6015625 0.015625 0  0.609375 0.015625 0  0.6171875 0.015625 0  0.625 0.015625 0  0.6328125 0.015625 0  0.640625 0.015625 0  0.6484375 0.015625 0  0.65625 0.015625 0  0.6640625 0.015625 0  0.671875 0.015625 0  0.6796875 0.015625 0  0.6875 0.015625 0  0.6953125 0.015625 0  0.703125 0.015625 0  0.7109375 0.015625 0  0.71875 0.015625 0  0.7265625 0.015625 0  0.734375 0.015625 0  0.7421875 0.015625 0  0.75 0.015625 0  0.7578125 0.015625 0  0.765625 0.015625 0  0.7734375 0.015625 0  0.78125 0.015625 0  0.7890625 0.015625 0  0.796875 0.015625 0  0.8046875 0.015625 0  0.8125 0.015625 0  0.8203125 0.015625 0  0.828125 0.015625 0  0.8359375 0.015625 0  0.84375 0.015625 0  0.8515625 0.015625 0  0.859375 0.015625 0  0.8671875 0.015625 0  0.875 0.015625 0  0.8828125 0.015625 0  0.890625 0.015625 0  0.8984375 0.015625 0  0.90625 0.015625 0  0.9140625 0.015625 0  0.921875 0.015625 0  0.9296875 0.015625 0  0.9375 0.015625 0  0.9453125 0.015625 0  0.953125 0.015625 0  0.9609375 0.015625 0  0.96875 0.015625 0  0.9765625 0.015625 0  0.984375 0.015625 0  0.9921875 0.015625 0  1 0.015625 0  0 0.0234375 0  0.0078125 0.0234375 0  0.015625 0.0234375 0  0.0234375 0.0234375 0  0.03125 0.0234375 0  0.0390625 0.0234375 0  0.046875 0.0234375 0  0.0546875 0.0234375 0  0.0625 0.0234375 0  0.0703125 0.0234375 0  0.078125 0.0234375 0  0.0859375 0.0234375 0  0.09375 0.0234375 0  0.1015625 0.0234375 0  0.109375 0.0234375 0  0.1171875 0.0234375 0  0.125 0.0234375 0  0.1328125 0.0234375 0  0.140625 0.0234375 0  0.1484375 0.0234375 0  0.15625 0.0234375 0  0.1640625 0.0234375 0  0.171875 0.0234375 0  0.1796875 0.0234375 0  0.1875 0.0234375 0  0.1953125 0.0234375 0  0.203125 0.0234375 0  0.2109375 0.0234375 0  0.21875 0.0234375 0  0.2265625 0.0234375 0  0.234375 0.0234375 0  0.2421875 0.0234375 0  0.25 0.0234375 0  0.2578125 0.0234375 0  0.265625 0.0234375 0  0.2734375 0.0234375 0  0.28125 0.0234375 0  0.2890625 0.0234375 0  0.296875 0.0234375 0  0.3046875 0.0234375 0  0.3125 0.0234375 0  0.3203125 0.0234375 0  0.328125 0.0234375 0  0.3359375 0.0234375 0  0.34375 0.0234375 0  0.3515625 0.0234375 0  0.359375 0.0234375 0  0.3671875 0.0234375 0  0.375 0.0234375 0  0.3828125 0.0234375 0  0.390625 0.0234375 0  0.3984375 0.0234375 0  0.40625 0.0234375 0  0.4140625 0.0234375 0  0.421875 0.0234375 0  0.4296875 0.0234375 0  0.4375 0.0234375 0  0.4453125 0.0234375 0  0.453125 0.0234375 0  0.4609375 0.0234375 0  0.46875 0.0234375 0  0.4765625 0.0234375 0  0.484375 0.0234375 0  0.4921875 0.0234375 0  0.5 0.0234375 0  0.5078125 0.0234375 0  0.515625 0.0234375 0  0.5234375 0.0234375 0  0.53125 0.0234375 0  0.5390625 0.0234375 0  0.546875 0.0234375 0  0.5546875 0.0234375 0  0.5625 0.0234375 0  0.5703125 0.0234375 0  0.578125 0.0234375 0  0.5859375 0.0234375 0  0.59375 0.0234375 0  0.6015625 0.0234375 0  0.609375 0.0234375 0  0.6171875 0.0234375 0  0.625 0.0234375 0  0.6328125 0.0234375 0  0.640625 0.0234375 0  0.6484375 0.0234375 0  0.65625 0.0234375 0  0.6640625 0.0234375 0  0.671875 0.0234375 0  0.6796875 0.0234375 0  0.6875 0.0234375 0  0.6953125 0.0234375 0  0.703125 0.0234375 0  0.7109375 0.0234375 0  0.71875 0.0234375 0  0.7265625 0.0234375 0  0.734375 0.0234375 0  0.7421875 0.0234375 0  0.75 0.0234375 0  0.7578125 0.0234375 0  0.765625 0.0234375 0  0.7734375 0.0234375 0  0.78125 0.0234375 0  0.7890625 0.0234375 0  0.796875 0.0234375 0  0.8046875 0.0234375 0  0.8125 0.0234375 0  0.8203125 0.0234375 0  0.828125 0.0234375 0  0.8359375 0.0234375 0  0.84375 0.0234375 0  0.8515625 0.0234375 0  0.859375 0.0234375 0  0.8671
[...]
<CellData  Scalars="f_71679"> 
<DataArray  type="Float64"  Name="f_71679"  format="ascii">3.5891864938129903e-12   3.5891864938068515e-12   6.4131346511976057e-13   1.1358325253787214e-12   5.6750619043112439e-13   6.3358031644033512e-13   5.8873843786900745e-13   5.9924304801225280e-13   6.1051585522821307e-13   6.1202323582833210e-13   6.2726057103784871e-13   6.2908008237194199e-13   6.4000285744866794e-13   6.4365242576502067e-13   6.4979341945557038e-13   6.5520183608075843e-13   6.5732501519868830e-13   6.6416704855357968e-13   6.6303862853257597e-13   6.7100674542296999e-13   6.6721998872343198e-13   6.7606756077317764e-13   6.7005982848624041e-13   6.7959629662276155e-13   6.7168980392042839e-13   6.8176817017403604e-13   6.7220407545151393e-13   6.8270962525242308e-13   6.7167256580344379e-13   6.8251424212729117e-13   6.7014931191917172e-13   6.8125344134013754e-13   6.6767786071055925e-13   6.7898365980493105e-13   6.6429483643333036e-13   6.7575119584876331e-13   6.6003234787778212e-13   6.7159552119324346e-13   6.5491964333753474e-13   6.6655157257863830e-13   6.4898426539477022e-13   6.6065135798408681e-13   6.4225286667877030e-13   6.5392509374839332e-13   6.3475179014340188e-13   6.4640201669691884e-13   6.2650748388386503e-13   6.3811096832118899e-13   6.1754679935147434e-13   6.2908081425570160e-13   6.0789719837019021e-13   6.1934074535844704e-13   5.9758690038559108e-13   6.0892049199790492e-13   5.8664497775182053e-13   5.9785047023679868e-13   5.7510141627238127e-13   5.8616188342512441e-13   5.6298714528506433e-13   5.7388677935049044e-13   5.5033404535316221e-13   5.6105808339020840e-13   5.3717493858032478e-13   5.4770960459381354e-13   5.2354356346176684e-13   5.3387602522462414e-13   5.0947453797827664e-13   5.1959287367805265e-13   4.9500331305145856e-13   5.0489648593025110e-13   4.8016611804537575e-13   4.8982395766582078e-13   4.6499989776529512e-13   4.7441308598232760e-13   4.4954224602497858e-13   4.5870230656830669e-13   4.3383133299951481e-13   4.4273062310103553e-13   4.1790582865748283e-13   4.2653753263989724e-13   4.0180482273704672e-13   4.1016294734323661e-13   3.8556774155355669e-13   3.9364711162745334e-13   3.6923426375188259e-13   3.7703051902778300e-13   3.5284423237254817e-13   3.6035382192595790e-13   3.3643756652804372e-13   3.4365774628411191e-13   3.2005417181158792e-13   3.2698299860493354e-13   3.0373384971573412e-13   3.1037017664513766e-13   2.8751620653310716e-13   2.9385967640316543e-13   2.7144056328866681e-13   2.7749160133411043e-13   2.5554586383192648e-13   2.6130566939634703e-13   2.3987058529926064e-13   2.4534112236135442e-13   2.2445264793252250e-13   2.2963663480038666e-13   2.0932932780131231e-13   2.1423022481791300e-13   1.9453716795414838e-13   1.9915916444289941e-13   1.8011189413869003e-13   1.8445989327112777e-13   1.6608833001665454e-13   1.7016793419469812e-13   1.5250031601476541e-13   1.5631780813637683e-13   1.3938062856827772e-13   1.4294295451029668e-13   1.2676090400247336e-13   1.3007565188868560e-13   1.1467156310783285e-13   1.1774694249225585e-13   1.0314173981071133e-13   1.0598655912346042e-13   9.2199211673717579e-14   9.4822854381889859e-14   8.1870335868213514e-14   8.4282734474061539e-14   7.2179984248319609e-14   7.4391596120864474e-14   6.3151488358849429e-14   6.5173265844230624e-14   5.4806580722502171e-14   5.6649943845911661e-14   4.7165346015777680e-14   4.8842153163223103e-14   4.0246173474140171e-14   4.1768689311805519e-14   3.4065712516798552e-14   3.5446577833286857e-14   2.8638835310629033e-14   2.9891033515632515e-14   2.3978601178654669e-14   2.5115425005356610e-14   2.0096226316491010e-14   2.1131243796524033e-14   1.7001058414974854e-14   1.7948077626042776e-14   1.4700554857566475e-14   1.5573588036773491e-14   1.3200266099538210e-14   1.4013493708482101e-14   1.2503823748535148e-14   1.3271556916691024e-14   1.2612932842395652e-14   1.3349576179567373e-14   1.3527369393463417e-14   1.4247382754631581e-14   1.5244982209801608e-14   1.5962842132901446e-14   1.7761699734962042e-14   1.8491860336055299e-14   2.1071541453746292e-14   2.1828395059442877e-14   2.5166634080759441e-14   2.5964471155612346e-14   3.0037232502407440e-14   3.0890201364243097e-14   3.5671745281080079e-14   3.6593811166487176e-14   4.2056764826752786e-14   4.3061668578570768e-14   4.9177102381394194e-14   5.0278318294360671e-14   5.7015827185494640e-14   5.8226520252432868e-14   6.5554310491806764e-14   6.6887292741451464e-14   7.4772273925149318e-14   7.6239959483385349e-14   8.4647842289748303e-14   8.6262201072476884e-14   9.5157600588409934e-14   9.6930110178195350e-14   1.0627665582684692e-13   1.0821825102840711e-13   1.1797870284472434e-13   1.2009972192426405e-13   1.3023609455236863e-13   1.3254622204440844e-13   1.4301991685661236e-13   1.4552812100428847e-13   1.5630006783282466e-13   1.5901453172829355e-13   1.7004534183707900e-13   1.7297338666098380e-13   1.8422351886964549e-13   1.8737151564044926e-13   1.9880145895112061e-13   2.0217472687226120e-13   2.1374520303564294e-13   2.1734788984739814e-13   2.2902008127024938e-13   2.3285501918186586e-13   2.4459082863045652e-13   2.4865935973665575e-13   2.6042171220239794e-13   2.6472347179065604e-13   2.7647667122609488e-13   2.8100931618800611e-13   2.9271947414508752e-13   2.9747833547326221e-13   3.0911389902512525e-13   3.1409153453198025e-13   3.2562394614041761e-13   3.3080955140683351e-13   3.4221409603151019e-13   3.4759272202956195e-13   3.5884963262333133e-13   3.6440112855667745e-13   3.7549706502108731e-13   3.8119462802687490e-13   3.9212469552007476e-13   3.9793284973777317e-13   4.0870342001799075e-13   4.1457514998045111e-13   4.2520789637983255e-13   4.3108050325169924e-13   4.4161832521364038e-13   4.4740731011608201e-13   4.5792327124593601e-13   4.6351309645360972e-13   4.7412433705906960e-13   4.7935410306765879e-13   4.9024425890220981e-13   4.9488484630475881e-13   5.0634164363167721e-13   5.1005802244306812e-13   5.2253924477217933e-13   5.2482606759922703e-13   5.3908127155036613e-13   5.3914873946263560e-13   5.5645552161066397e-13   5.5302137886834900e-13   5.7566123137217070e-13   5.6657527806543653e-13   5.9877132201811551e-13   5.8044207428830336e-13   6.2975269262193300e-13   5.9714264031564195e-13   6.7264566192920770e-13   6.2655606484938909e-13   7.0849511911406758e-13   7.0566649777345149e-13   8.7970153574877277e-13   9.1577836337635871e-13   5.0906594313051479e-11   2.0061641034798397e-12   1.1358325253874720e-12   6.4131346512206652e-13   7.4678257803985376e-13   7.4678257803408480e-13   6.6380054456118263e-13   7.6695578923645475e-13   6.5057055040996971e-13   7.1258717268615700e-13   6.5258086297772530e-13   6.7885868649737324e-13   6.5935566659522788e-13   6.6964136937978550e-13   6.6665177381805615e-13   6.7033517641100735e-13   6.7314157498017695e-13   6.7418154616163533e-13   6.7846980369556078e-13   6.7856892930895586e-13   6.8258178540729467e-13   6.8249748612777121e-13   6.8551034652114953e-13   6.8558458035262779e-13   6.8730841552764565e-13   6.8769210198166703e-13   6.8802838062243459e-13   6.8878170029357621e-13   6.8771676851755637e-13   6.8885604358882185e-13   6.8641387454190119e-13   6.8793424499100246e-13   6.8415482436310206e-13   6.8604148115943424e-13   6.8097088176565096e-13   6.8320469982124007e-13   6.7689062640520872e-13   6.7945098505716406e-13   6.7194091413256835e-13   6.7480707955277165e-13   6.6614762808020147e-13   6.6929938992334620e-13   6.5953624966684169e-13   6.6295417661771335e-13   6.5213229054175463e-13   6.5579779050534510e-13   6.4396161369171436e-13   6.4785689926070476e-13   6.3505066789943163e-13   6.3915868226459965e-13   6.2542665948052892e-13   6.2973098670448959e-13   6.1511766886810434e-13   6.1960244777380767e-13   6.0415272992565786e-13   6.0880257266597032e-13   5.9256187687501380e-13   5.9736180078183787e-13   5.8037616601131516e-13   5.8531153404392725e-13   5.6762767636326569e-13   5.7268414963465932e-13   5.5434949569605959e-13   5.5951299515063722e-13   5.4057569055376961e-13   5.4583236785724701e-13   5.2634126707504154e-13   5.3167748288171097e-13   5.1168212227425582e-13   5.1708443020485082e-13   4.9663498552470201e-13   5.0209012365240808e-13   4.8123735546529627e-13   4.8673224089601683e-13   4.6552743108344606e-13   4.7104915924122758e-13   4.4954403619999987e-13   4.5507988398135003e-13   4.3332654168809314e-13   4.3886397345195257e-13   4.1691478369620947e-13   4.2244145872062799e-13   4.0034897912477633e-13   4.0585276213347024e-13   3.8366963693449665e-13   3.8913861064104113e-13   3.6691747154355520e-13   3.7233994869480838e-13   3.5013330988647453e-13   3.5549784819360377e-13   3.3335800084626354e-13   3.3865341801614820e-13   3.1663232199768083e-13   3.2184771118592417e-13   2.9999688585489039e-13   3.0512163224041156e-13   2.8349204835267037e-13   2.8851584570442654e-13   2.6715781393190239e-13   2.7207067994479796e-13   2.5103374325540671e-13   2.5582603766844497e-13   2.3515886148620759e-13   2.3982130111318091e-13   2.1957156691235798e-13   2.2409524198018006e-13   2.0430954112933279e-13   2.0868593084386438e-13   1.8940966098549122e-13   1.9363064861870514e-13   1.7490791075449259e-13   1.7896579852177359e-13   1.6083929944592634e-13   1.6472682227017961e-13   1.4723777667085247e-13   1.5094811504392334e-13   1.3413615391894839e-13   1.3766294597076893e-13   1.2156602572920803e-13   1.2490337956696381e-13   1.0955769628170621e-13   1.1270019967743398e-13   9.8140107320567928e-14   1.0108283786197432e-13   8.7340770272906124e-14   9.0079303006104747e-14   7.7185700173779445e-14   7.9716116086514696e-14   6.7699355876606598e-14   7.0018247089027530e-14   5.8904581267775119e-14   6.1009056113622984e-14   5.0822550944618575e-14   5.2710238810872117e-14   4.3472722193212703e-14   4.5141774919952081e-14   3.6872787471233466e-14   3.8321880915372242e-14   3.1038633664155608e-14   3.2266967729957660e-14   2.5984304959239135e-14   2.6991601856111675e-14   2.1721970088364418e-14   2.2508471477477527e-14   1.8261893934740146e-14   1.8828356651957821e-14   1.5612414507654788e-14   1.5960104454735643e-14   1.3779922981092538e-14   1.3910608279293701e-14   1.2768851000094244e-14   1.2684792517434367e-14   1.2581659888428781e-14   1.2285600900263568e-14   1.3218836762307761e-14   1.2713990767965158e-14   1.4678894456805082e-14   1.3968931491348964e-14   1.6958376473015691e-14   1.6047407340147588e-14   2.0051866897262112e-14   1.8944425823370633e-14   2.3952004963422653e-14   2.2653030183281949e-14   2.8649504355341610e-14   2.7164316770481147e-14   3.4133177447969096e-14   3.2467457185049044e-14   4.0389964016542330e-14   3.8549724654818395e-14   4.7404964803911255e-14   4.5396525104309255e-14   5.5161479533181488e-14   5.2991432590080469e-14   6.3641049491980274e-14   6.1316228845167886e-14   7.2823504608953791e-14   7.0350947071453719e-14   8.2687014773477102e-14   8.0073919613870037e-14   9.3208145544543704e-14   9.0461829450814146e-14   1.0436191797669852e-13   1.0148976524887892e-13   1.1612187257582260e-13   1.1313127944259089e-13   1.2846013711034542e-13   1.2535844969586064e-13   1.4134749869187348e-13   1.3814194309325870e-13   1.5475347875612175e-13   1.5145108197907554e-13   1.6864641352935841e-13   1.6525391198775131e-13   1.8299353544348724e-13   1.7951727139951816e-13   1.9776106090473391e-13   1.9420686041170373e-13   2.1291427968402908e-13   2.0928731024787158e-13   2.2841764824668397e-13   2.2472224979197040e-13   2.4423488720978679e-13   2.4047436984306105e-13   2.6032908016758715e-13   2.5650548027734632e-13   2.7666277849181612e-13   2.7277656070995627e-13   2.9319810720664783e-13   2.8924779665012486e-13   3.0989687400711330e-13   3.0587859897781580e-13   3.2672068179476198e-13   3.2262759833498063e-13   3.4363104048274474e-13   3.3945260090057504e-13   3.6058947987745219e-13   3.5631049495069689e-13   3.7755765539973514e-13   3.7315707969995954e-13   3.9449744250069290e-13   3.8994678616527762e-13   4.1137099981834617e-13   4.0663223699240881e-13   4.2814077540015364e-13   4.2316357038521190e-13   4.4476939091045984e-13   4.3948740440756590e-13   4.6121928383546349e-13   4.5554526252704756e-13   4.7745184790399603e-13   4.7127116456216625e-13   4.9342550865485919e-13   4.8658793175697474e-13   5.0909144518027215e-13   5.0140148605810274e-13   5.2438384327559751e-13   5.1559204340695733e-13   5.3919667113614885e-13   5.2900058680595064e-13   5.5332501247285932e-13   5.4140849410807404e-13   5.6630707855683045e-13   5.5250809566234459e-13   5.7697437284791921e-13   5.6186170219517938e-13   5.8214685809761160e-13   5.6883063923533574e-13   5.7322958239692786e-13   5.7228862191507392e-13   5.3285991405720998e-13   5.6883239310816215e-13   4.9459932146584342e-13   5.4508222180293947e-13   1.0642594759156167e-12   5.0381527620326917e-13   8.8954043141443760e-13   9.2733139168441313e-13   6.3358031644198039e-13   5.6750619042245010e-13   7.6695578926542122e-13   6.6380054455693455e-13   7.1228733013141539e-13   7.1228733013418592e-13   6.8896537432360567e-13   7.2619456414678389e-13   6.8147667685613598e-13   7.1459020499560938e-13   6.8076789885254079e-13   7.0261275447557475e-13   6.8291238290168685e-13   6.9633933352241303e-13   6.8595476087600216e-13   6.9425293908548236e-13   6.8892562432420482e-13   6.9428365285941952e-13   6.9135784626750517e-13   6.9508421506647740e-13   6.9303094344841912e-13   6.9589245005342058e-13   6.9384447125314149e-13   6.9629218380438341e-13   6.9375691994637681e-13   6.9605850624013958e-13   6.9275620115844645e-13   6.9507147225955732e-13   6.9084523709961187e-13   6.9326947700689732e-13   6.8803484837634172e-13   6.9062403183786454e-13   6.8434021980940714e-13   6.8712595327728565e-13   6.7977915256675585e-13   6.8277768739031418e-13   6.7437121464114528e-13   6.7758898082920515e-13   6.6813734622098216e-13   6.7157440520689097e-13   6.6109969181040940e-13   6.6475192293398472e-13   6.5328154432963066e-13   6.5714204831808406e-13   6.4470733750111088e-13   6.4876734866489733e-13   6.3540265680531670e-13   6.3965214295645402e-13   6.2539425311994297e-13   6.2982231428365420e-13   6.1471004983326569e-13   6.1930518651891367e-13   6.0337914162118335e-13   6.0812943731408786e-13   5.9143178384457806e-13   5.9632503153604617e-13   5.7889936905742637e-13   5.8392316111803899e-13   5.6581439793678729e-13   5.7095618939858089e-13   5.5221043804731092e-13   5.5745759565457715e-13   5.3812207649793020e-13   5.4346191517106705e-13   5.2358486429248146e-13   5.2900467827876405e-13   5.0863525639263507e-13   5.1412234414597826e-13   4.9331054351693849e-13   4.9885223158694071e-13   4.7764878163648458e-13   4.8323244468755263e-13   4.6168871512856662e-13   4.6730179674399513e-13   4.4546969694886797e-13   4.5109972961297111e-13   4.2903160687247392e-13   4.3466623150209253e-13   4.1241476541722260e-13   4.1804174956598161e-13   3.9565984389739699e-13   4.0126710383006162e-13   3.7880777813114070e-13   3.8438339578567040e-13   3.6189967298622321e-13   3.6743191779466292e-13   3.4497671255113665e-13   3.5045406035308650e-13   3.2808006466666026e-13   3.3349121752240694e-13   3.1125078768496449e-13   3.1658469435631110e-13   2.9452973566132321e-13   2.9977561013058849e-13   2.7795746339305603e-13   2.8310480605214866e-13   2.6157413335208175e-13   2.6661274898102156e-13   2.4541942156367454e-13   2.5033943810062481e-13   2.2953242459194648e-13   2.3432431256880737e-13   2.1395156900905756e-13   2.1860615870439058e-13   1.9871452029425078e-13   2.0322301946884685e-13   1.8385809470505123e-13   1.8821210528930605e-13   1.6941817294521092e-13   1.7360970750305686e-13   1.5542961550360461e-13   1.5945111160812654e-13   1.4192617991004296e-13   1.4577051564233241e-13   1.2894044203290745e-13   1.3260094863863368e-13   1.1650371773567794e-13   1.1997419297017552e-13   1.0464599092975017e-13   1.0792071039289844e-13   9.3395840882398581e-14   9.6469568692292649e-14   8.2780375235622255e-14   8.5648373209134488e-14   7.2825166476467105e-14   7.5483203148524442e-14   6.3554191467652636e-14   6.5998547974874874e-14   5.4989773155985320e-14   5.7217250898588691e-14   4.7152531113400054e-14   4.9160454801917710e-14   4.0061329680279764e-14   4.1847551663173065e-14   3.3733235476458093e-14   3.5296137407792267e-14   2.8183476986768248e-14   2.9521970482763350e-14   2.3425408590156736e-14   2.4538934513533456e-14   1.9470479718157802e-14   2.0359005863706940e-14   1.6328207975869258e-14   1.6992225315130168e-14   1.4006157135060723e-14   1.4446674953522540e-14   1.2509920414544248e-14   1.2728459355552755e-14   1.1843107568006371e-14   1.1841691177900387e-14   1.2007337223819924e-14   1.1788482262230957e-14   1.3002233811664785e-14   1.2568938705005631e-14   1.4825429976266537e-14   1.4181161413274391e-14   1.7472572619440465e-14   1.6621250474068086e-14   2.0937334764519211e-14   1.9883315364385043e-14   2.5211431660020887e-14   2.3959488905076626e-14   3.0284641503843632e-14   2.8839946364921984e-14   3.6144831413393115e-14   3.4512928736556631e-14   4.2777987067903984e-14   4.0964770829323805e-14   5.0168247750923539e-14   4.8179933489466301e-14   5.8297944994588691e-14   5.6141039860554708e-14   6.7147646074023467e-14   6.4828916159618147e-14   7.6696201287070661e-14   7.4222635748849865e-14   8.6920795506457952e-14   8.4299567166837910e-14   9.7797002689327757e-14   9.5035425421423431e-14   1.0929884554980891e-13   1.0640432660792326e-13   1.2139885651846917e-13   1.1837884448164737e-13   1.3406814334835375e-13   1.3093007033936993e-13   1.4727645668861242e-13   1.4402767376225151e-13   1.6099225987611910e-13   1.5763996493246565e-13   1.7518280026902105e-13   1.7173395672395584e-13   1.8981418231411792e-13   1.8627542703921910e-13   2.0485143973079393e-13   2.0122897821680529e-13   2.2025860717747433e-13   2.1655809314730701e-13   2.3599878972389145e-13   2.3222518611717607e-13   2.5203422737154343e-13   2.4819164464169027e-13   2.6832635174222704e-13   2.6441785911115950e-13   2.8483583157251284e-13   2.8086323600444693e-13   3.0152260099386856e-13   2.9748618615805435e-13   3.1834586117384004e-13   3.1424408039114758e-13   3.3526404383832641e-13   3.3109315798823651e-13   3.5223471616670571e-13   3.4798837033459258e-13   3.6921439791853475e-13   3.6488313210240861e-13   3.8615824349205898e-13   3.8172894229862097e-13   4.0301951392490908e-13   3.9847481693562262e-13   4.1974871565472819e-13   4.1506645004202459e-13   4.3629219479803532e-13   4.3144497438411751e-13   4.5258983308696154e-13   4.4754512996572472e-13   4.6857120279999030e-13   4.6329253676730770e-13   4.8414901672170200e-13   4.7859960586759828e-13   4.9920766559094818e-13   4.9335934009990354e-13   5.1358253192117736e-13   5.0743582311949153e-13   5.2702139215291468e-13   5.2064941865184589e-13   5.3910999393617563e-13   5.3275333097379501e-13   5.4912489100364161e-13   5.4339554701014633e-13   5.5574193402155206e-13   5.5205452725858177e-13   5.5649467142277844e-13   5.5792369892348949e-13   5.4702849590421246e-13   5.5969318822679584e-13   5.2154837054760877e-13   5.5520406607036277e-13   4.8154904407681061e-13   5.4184891891410159e-13   4.6317140782249896e-13   5.2531356353828630e-13   5.0572915375754641e-13   5.6114616904375019e-13   7.3507394454708957e-13   7.3920808883579455e-13   5.9924304802560331e-13   5.8873843787686052e-13   7.1258717271092728e-13   6.5057055042896478e-13   7.2619456411265976e-13   6.8896537429273563e-13   7.1350322348395846e-13   7.1350322350090900e-13   7.0447312596467719e-13   7.2043161987334592e-13   7.0017189250169057e-13   7.1781157100187355e-13   6.9881286868271086e-13   7.1335259133282393e-13   6.9896170543476560e-13   7.0993479898386378e-13   6.9966881994181551e-13   7.0781884317130915e-13   7.0034570903469776e-13   7.0651790289124737e-13   7.0064008530842584e-13   7.0550690197894047e-13   7.0034517662025354e-13   7.0438870890113815e-13   6.9934163318527503e-13   7.0289441544203190e-13   6.9756244252190064e-13   7.0085046954143237e-13   6.94972246