<?xml version="1.0"?>
<VTKFile type="UnstructuredGrid"  version="0.1"  >
<UnstructuredGrid>
<Piece  NumberOfPoints="16641" NumberOfCells="32768">
<Points>
<DataArray  type="Float64"  NumberOfComponents="3"  format="ascii">0 0 0  0.0078125 0 0  0.015625 0 0  0.0234375 0 0  0.03125 0 0  0.0390625 0 0  0.046875 0 0  0.0546875 0 0  0.0625 0 0  0.0703125 0 0  0.078125 0 0  0.0859375 0 0  0.09375 0 0  0.1015625 0 0  0.109375 0 0  0.1171875 0 0  0.125 0 0  0.1328125 0 0  0.140625 0 0  0.1484375 0 0  0.15625 0 0  0.1640625 0 0  0.171875 0 0  0.1796875 0 0  0.1875 0 0  0.1953125 0 0  0.203125 0 0  0.2109375 0 0  0.21875 0 0  0.2265625 0 0  0.234375 0 0  0.2421875 0 0  0.25 0 0  0.2578125 0 0  0.265625 0 0  0.2734375 0 0  0.28125 0 0  0.2890625 0 0  0.296875 0 0  0.3046875 0 0  0.3125 0 0  0.3203125 0 0  0.328125 0 0  0.3359375 0 0  0.34375 0 0  0.3515625 0 0  0.359375 0 0  0.3671875 0 0  0.375 0 0  0.3828125 0 0  0.390625 0 0  0.3984375 0 0  0.40625 0 0  0.4140625 0 0  0.421875 0 0  0.4296875 0 0  0.4375 0 0  0.4453125 0 0  0.453125 0 0  0.4609375 0 0  0.46875 0 0  0.4765625 0 0  0.484375 0 0  0.4921875 0 0  0.5 0 0  0.5078125 0 0  0.515625 0 0  0.5234375 0 0  0.53125 0 0  0.5390625 0 0  0.546875 0 0  0.5546875 0 0  0.5625 0 0  0.5703125 0 0  0.578125 0 0  0.5859375 0 0  0.59375 0 0  0.6015625 0 0  0.609375 0 0  0.6171875 0 0  0.625 0 0  0.6328125 0 0  0.640625 0 0  0.6484375 0 0  0.65625 0 0  0.6640625 0 0  0.671875 0 0  0.6796875 0 0  0.6875 0 0  0.6953125 0 0  0.703125 0 0  0.7109375 0 0  0.71875 0 0  0.7265625 0 0  0.734375 0 0  0.7421875 0 0  0.75 0 0  0.7578125 0 0  0.765625 0 0  0.7734375 0 0  0.78125 0 0  0.7890625 0 0  0.796875 0 0  0.8046875 0 0  0.8125 0 0  0.8203125 0 0  0.828125 0 0  0.8359375 0 0  0.84375 0 0  0.8515625 0 0  0.859375 0 0  0.8671875 0 0  0.875 0 0  0.8828125 0 0  0.890625 0 0  0.8984375 0 0  0.90625 0 0  0.9140625 0 0  0.921875 0 0  0.9296875 0 0  0.9375 0 0  0.9453125 0 0  0.953125 0 0  0.9609375 0 0  0.96875 0 0  0.9765625 0 0  0.984375 0 0  0.9921875 0 0  1 0 0  0 0.0078125 0  0.0078125 0.0078125 0  0.015625 0.0078125 0  0.0234375 0.0078125 0  0.03125 0.0078125 0  0.0390625 0.0078125 0  0.046875 0.0078125 0  0.0546875 0.0078125 0  0.0625 0.0078125 0  0.0703125 0.0078125 0  0.078125 0.0078125 0  0.0859375 0.0078125 0  0.09375 0.0078125 0  0.1015625 0.0078125 0  0.109375 0.0078125 0  0.1171875 0.0078125 0  0.125 0.0078125 0  0.1328125 0.0078125 0  0.140625 0.0078125 0  0.1484375 0.0078125 0  0.15625 0.0078125 0  0.1640625 0.0078125 0  0.171875 0.0078125 0  0.1796875 0.0078125 0  0.1875 0.0078125 0  0.1953125 0.0078125 0  0.203125 0.0078125 0  0.2109375 0.0078125 0  0.21875 0.0078125 0  0.2265625 0.0078125 0  0.234375 0.0078125 0  0.2421875 0.0078125 0  0.25 0.0078125 0  0.2578125 0.0078125 0  0.265625 0.0078125 0  0.2734375 0.0078125 0  0.28125 0.0078125 0  0.2890625 0.0078125 0  0.296875 0.0078125 0  0.3046875 0.0078125 0  0.3125 0.0078125 0  0.3203125 0.0078125 0  0.328125 0.0078125 0  0.3359375 0.0078125 0  0.34375 0.0078125 0  0.3515625 0.0078125 0  0.359375 0.0078125 0  0.3671875 0.0078125 0  0.375 0.0078125 0  0.3828125 0.0078125 0  0.390625 0.0078125 0  0.3984375 0.0078125 0  0.40625 0.0078125 0  0.4140625 0.0078125 0  0.421875 0.0078125 0  0.4296875 0.0078125 0  0.4375 0.0078125 0  0.4453125 0.0078125 0  0.453125 0.0078125 0  0.4609375 0.0078125 0  0.46875 0.0078125 0  0.4765625 0.0078125 0  0.484375 0.0078125 0  0.4921875 0.0078125 0  0.5 0.0078125 0  0.5078125 0.0078125 0  0.515625 0.0078125 0  0.5234375 0.0078125 0  0.53125 0.0078125 0  0.5390625 0.0078125 0  0.546875 0.0078125 0  0.5546875 0.0078125 0  0.5625 0.0078125 0  0.5703125 0.0078125 0  0.578125 0.0078125 0  0.5859375 0.0078125 0  0.59375 0.0078125 0  0.6015625 0.0078125 0  0.609375 0.0078125 0  0.6171875 0.0078125 0  0.625 0.0078125 0  0.6328125 0.0078125 0  0.640625 0.0078125 0  0.6484375 0.0078125 0  0.65625 0.0078125 0  0.6640625 0.0078125 0  0.671875 0.0078125 0  0.6796875 0.0078125 0  0.6875 0.0078125 0  0.6953125 0.0078125 0  0.703125 0.0078125 0  0.7109375 0.0078125 0  0.71875 0.0078125 0  0.7265625 0.0078125 0  0.734375 0.0078125 0  0.7421875 0.0078125 0  0.75 0.0078125 0  0.7578125 0.0078125 0  0.765625 0.0078125 0  0.7734375 0.0078125 0  0.78125 0.0078125 0  0.7890625 0.0078125 0  0.796875 0.0078125 0  0.8046875 0.0078125 0  0.8125 0.0078125 0  0.8203125 0.0078125 0  0.828125 0.0078125 0  0.8359375 0.0078125 0  0.84375 0.0078125 0  0.8515625 0.0078125 0  0.859375 0.0078125 0  0.8671875 0.0078125 0  0.875 0.0078125 0  0.8828125 0.0078125 0  0.890625 0.0078125 0  0.8984375 0.0078125 0  0.90625 0.0078125 0  0.9140625 0.0078125 0  0.921875 0.0078125 0  0.9296875 0.0078125 0  0.9375 0.0078125 0  0.9453125 0.0078125 0  0.953125 0.0078125 0  0.9609375 0.0078125 0  0.96875 0.0078125 0  0.9765625 0.0078125 0  0.984375 0.0078125 0  0.9921875 0.0078125 0  1 0.0078125 0  0 0.015625 0  0.0078125 0.015625 0  0.015625 0.015625 0  0.0234375 0.015625 0  0.03125 0.015625 0  0.0390625 0.015625 0  0.046875 0.015625 0  0.0546875 0.015625 0  0.0625 0.015625 0  0.0703125 0.015625 0  0.078125 0.015625 0  0.0859375 0.015625 0  0.09375 0.015625 0  0.1015625 0.015625 0  0.109375 0.015625 0  0.1171875 0.015625 0  0.125 0.015625 0  0.1328125 0.015625 0  0.140625 0.015625 0  0.1484375 0.015625 0  0.15625 0.015625 0  0.1640625 0.015625 0  0.171875 0.015625 0  0.1796875 0.015625 0  0.1875 0.015625 0  0.1953125 0.015625 0  0.203125 0.015625 0  0.2109375 0.015625 0  0.21875 0.015625 0  0.2265625 0.015625 0  0.234375 0.015625 0  0.2421875 0.015625 0  0.25 0.015625 0  0.2578125 0.015625 0  0.265625 0.015625 0  0.2734375 0.015625 0  0.28125 0.015625 0  0.2890625 0.015625 0  0.296875 0.015625 0  0.3046875 0.015625 0  0.3125 0.015625 0  0.3203125 0.015625 0  0.328125 0.015625 0  0.3359375 0.015625 0  0.34375 0.015625 0  0.3515625 0.015625 0  0.359375 0.015625 0  0.3671875 0.015625 0  0.375 0.015625 0  0.3828125 0.015625 0  0.390625 0.015625 0  0.3984375 0.015625 0  0.40625 0.015625 0  0.4140625 0.015625 0  0.421875 0.015625 0  0.4296875 0.015625 0  0.4375 0.015625 0  0.4453125 0.015625 0  0.453125 0.015625 0  0.4609375 0.015625 0  0.46875 0.015625 0  0.4765625 0.015625 0  0.484375 0.015625 0  0.4921875 0.015625 0  0.5 0.015625 0  0.5078125 0.015625 0  0.515625 0.015625 0  0.5234375 0.015625 0  0.53125 0.015625 0  0.5390625 0.015625 0  0.546875 0.015625 0  0.5546875 0.015625 0  0.5625 0.015625 0  0.5703125 0.015625 0  0.578125 0.015625 0  0.5859375 0.015625 0  0.59375 0.015625 0  0.6015625 0.015625 0  0.609375 0.015625 0  0.6171875 0.015625 0  0.625 0.015625 0  0.6328125 0.015625 0  0.640625 0.015625 0  0.6484375 0.015625 0  0.65625 0.015625 0  0.6640625 0.015625 0  0.671875 0.015625 0  0.6796875 0.015625 0  0.6875 0.015625 0  0.6953125 0.015625 0  0.703125 0.015625 0  0.7109375 0.015625 0  0.71875 0.015625 0  0.7265625 0.015625 0  0.734375 0.015625 0  0.7421875 0.015625 0  0.75 0.015625 0  0.7578125 0.015625 0  0.765625 0.015625 0  0.7734375 0.015625 0  0.78125 0.015625 0  0.7890625 0.015625 0  0.796875 0.015625 0  0.8046875 0.015625 0  0.8125 0.015625 0  0.8203125 0.015625 0  0.828125 0.015625 0  0.8359375 0.015625 0  0.84375 0.015625 0  0.8515625 0.015625 0  0.859375 0.015625 0  0.8671875 0.015625 0  0.875 0.015625 0  0.8828125 0.015625 0  0.890625 0.015625 0  0.8984375 0.015625 0  0.90625 0.015625 0  0.9140625 0.015625 0  0.921875 0.015625 0  0.9296875 0.015625 0  0.9375 0.015625 0  0.9453125 0.015625 0  0.953125 0.015625 0  0.9609375 0.015625 0  0.96875 0.015625 0  0.9765625 0.015625 0  0.984375 0.015625 0  0.9921875 0.015625 0  1 0.015625 0  0 0.0234375 0  0.0078125 0.0234375 0  0.015625 0.0234375 0  0.0234375 0.0234375 0  0.03125 0.0234375 0  0.0390625 0.0234375 0  0.046875 0.0234375 0  0.0546875 0.0234375 0  0.0625 0.0234375 0  0.0703125 0.0234375 0  0.078125 0.0234375 0  0.0859375 0.0234375 0  0.09375 0.0234375 0  0.1015625 0.0234375 0  0.109375 0.0234375 0  0.1171875 0.0234375 0  0.125 0.0234375 0  0.1328125 0.0234375 0  0.140625 0.0234375 0  0.1484375 0.0234375 0  0.15625 0.0234375 0  0.1640625 0.0234375 0  0.171875 0.0234375 0  0.1796875 0.0234375 0  0.1875 0.0234375 0  0.1953125 0.0234375 0  0.203125 0.0234375 0  0.2109375 0.0234375 0  0.21875 0.0234375 0  0.2265625 0.0234375 0  0.234375 0.0234375 0  0.2421875 0.0234375 0  0.25 0.0234375 0  0.2578125 0.0234375 0  0.265625 0.0234375 0  0.2734375 0.0234375 0  0.28125 0.0234375 0  0.2890625 0.0234375 0  0.296875 0.0234375 0  0.3046875 0.0234375 0  0.3125 0.0234375 0  0.3203125 0.0234375 0  0.328125 0.0234375 0  0.3359375 0.0234375 0  0.34375 0.0234375 0  0.3515625 0.0234375 0  0.359375 0.0234375 0  0.3671875 0.0234375 0  0.375 0.0234375 0  0.3828125 0.0234375 0  0.390625 0.0234375 0  0.3984375 0.0234375 0  0.40625 0.0234375 0  0.4140625 0.0234375 0  0.421875 0.0234375 0  0.4296875 0.0234375 0  0.4375 0.0234375 0  0.4453125 0.0234375 0  0.453125 0.0234375 0  0.4609375 0.0234375 0  0.46875 0.0234375 0  0.4765625 0.0234375 0  0.484375 0.0234375 0  0.4921875 0.0234375 0  0.5 0.0234375 0  0.5078125 0.0234375 0  0.515625 0.0234375 0  0.5234375 0.0234375 0  0.53125 0.0234375 0  0.5390625 0.0234375 0  0.546875 0.0234375 0  0.5546875 0.0234375 0  0.5625 0.0234375 0  0.5703125 0.0234375 0  0.578125 0.0234375 0  0.5859375 0.0234375 0  0.59375 0.0234375 0  0.6015625 0.0234375 0  0.609375 0.0234375 0  0.6171875 0.0234375 0  0.625 0.0234375 0  0.6328125 0.0234375 0  0.640625 0.0234375 0  0.6484375 0.0234375 0  0.65625 0.0234375 0  0.6640625 0.0234375 0  0.671875 0.0234375 0  0.6796875 0.0234375 0  0.6875 0.0234375 0  0.6953125 0.0234375 0  0.703125 0.0234375 0  0.7109375 0.0234375 0  0.71875 0.0234375 0  0.7265625 0.0234375 0  0.734375 0.0234375 0  0.7421875 0.0234375 0  0.75 0.0234375 0  0.7578125 0.0234375 0  0.765625 0.0234375 0  0.7734375 0.0234375 0  0.78125 0.0234375 0  0.7890625 0.0234375 0  0.796875 0.0234375 0  0.8046875 0.0234375 0  0.8125 0.0234375 0  0.8203125 0.0234375 0  0.828125 0.0234375 0  0.8359375 0.0234375 0  0.84375 0.0234375 0  0.8515625 0.0234375 0  0.859375 0.0234375 0  0.8671
[...]
<CellData  Scalars="f_71697"> 
<DataArray  type="Float64"  Name="f_71697"  format="ascii">4.9408348852471799e-11   4.9408348852462719e-11   7.9488145859402745e-11   1.0266402906115959e-10   1.1538364349095086e-10   1.5432370727509485e-10   1.5699515294800096e-10   2.1432086672884379e-10   2.0417212483854446e-10   2.8239576704956086e-10   2.5674455427570852e-10   3.5828245148330470e-10   3.1453022800802257e-10   4.4170515060473362e-10   3.7733834405173982e-10   5.3237938901452550e-10   4.4497126081249608e-10   6.3001306065213323e-10   5.1722527351494696e-10   7.3430687409406741e-10   5.9389095010535716e-10   8.4495444013944165e-10   6.7475329685956619e-10   9.6164224470759183e-10   7.5959187936440296e-10   1.0840496335846709e-09   8.4818095403955043e-10   1.2118488623096760e-09   9.4028963261096176e-10   1.3447052282776012e-09   1.0356820870227887e-09   1.4822772860699868e-09   1.1341177956406220e-09   1.6242171405521514e-09   1.2353518287599355e-09   1.7701708101988914e-09   1.3391351703060818e-09   1.9197786528142617e-09   1.4452150723676058e-09   2.0726758463232093e-09   1.5533354391792382e-09   2.2284929179911760e-09   1.6632372374029633e-09   2.3868563161319520e-09   1.7746589297156789e-09   2.5473890190141769e-09   1.8873369289618685e-09   2.7097111761715749e-09   2.0010060702968122e-09   2.8734407778683573e-09   2.1154000989113364e-09   3.0381943487099800e-09   2.2302521710554276e-09   3.2035876618129194e-09   2.3452953662120943e-09   3.3692364700541216e-09   2.4602632083686526e-09   3.5347572513090764e-09   2.5748901943801139e-09   3.6997679645233548e-09   2.6889123275383972e-09   3.8638888138013663e-09   2.8020676544770014e-09   4.0267430176720349e-09   2.9140968036546236e-09   4.1879575808890488e-09   3.0247435235712849e-09   4.3471640661519763e-09   3.1337552191693911e-09   4.5039993631704913e-09   3.2408834846200083e-09   4.6581064528195132e-09   3.3458846309123668e-09   4.8091351637322556e-09   3.4485202067294341e-09   4.9567429192414139e-09   3.5485575109780049e-09   5.1005954723923174e-09   3.6457700955519673e-09   5.2403676267433727e-09   3.7399382568369812e-09   5.3757439409802529e-09   3.8308495145353572e-09   5.5064194152409470e-09   3.9182990765048232e-09   5.6321001571225082e-09   4.0020902882204591e-09   5.7525040256012956e-09   4.0820350656474309e-09   5.8673612509159122e-09   4.1579543102845204e-09   5.9764150287467812e-09   4.2296783051998398e-09   6.0794220869141995e-09   4.2970470910000438e-09   6.1761532231238665e-09   4.3599108206211225e-09   6.2663938121907615e-09   4.4181300920005385e-09   6.3499442812378954e-09   4.4715762576527682e-09   6.4266205517536693e-09   4.5201317103240056e-09   6.4962544469676634e-09   4.5636901438803491e-09   6.5586940636622612e-09   4.6021567887537359e-09   6.6138041072071727e-09   4.6354486211662719e-09   6.6614661888997877e-09   4.6634945456742307e-09   6.7015790847769626e-09   4.6862355503589099e-09   6.7340589550989289e-09   4.7036248343258810e-09   6.7588395238882230e-09   4.7156279070305037e-09   6.7758722179809349e-09   4.7222226591659328e-09   6.7851262650581346e-09   4.7233994048731363e-09   6.7865887504613586e-09   4.7191608950582815e-09   6.7802646324386340e-09   4.7095223017926588e-09   6.7661767157272008e-09   4.6945111737197379e-09   6.7443655835189373e-09   4.6741673625472403e-09   6.7148894877865447e-09   4.6485429207183232e-09   6.6778241982547685e-09   4.6177019705564272e-09   6.6332628102159800e-09   4.5817205450383940e-09   6.5813155118067087e-09   4.5406864006108084e-09   6.5221093109358775e-09   4.4946988024662090e-09   6.4557877227245144e-09   4.4438682827306304e-09   6.3825104180919135e-09   4.3883163721357230e-09   6.3024528342732985e-09   4.3281753058058025e-09   6.2158057481681773e-09   4.2635877038539224e-09   6.1227748135539340e-09   4.1947062274547196e-09   6.0235800632699308e-09   4.1216932113219803e-09   5.9184553774225172e-09   4.0447202733507273e-09   5.8076479190406696e-09   3.9639679024731754e-09   5.6914175384117780e-09   3.8796250255055784e-09   5.5700361475810091e-09   3.7918885542423539e-09   5.4437870663892361e-09   3.7009629136861525e-09   5.3129643418022691e-09   3.6070595526781354e-09   5.1778720419578017e-09   3.5103964379214945e-09   5.0388235267938165e-09   3.4111975327792064e-09   4.8961406968328816e-09   3.3096922619297839e-09   4.7501532220483673e-09   3.2061149632206033e-09   4.6011977525939841e-09   3.1007043279455897e-09   4.4496171132484412e-09   2.9937028309396293e-09   4.2957594835276646e-09   2.8853561516885478e-09   4.1399775654004748e-09   2.7759125879082591e-09   3.9826277405037395e-09   2.6656224628410370e-09   3.8240692189085900e-09   2.5547375276678418e-09   3.6646631813477206e-09   2.4435103603313892e-09   3.5047719169238050e-09   2.3321937620972856e-09   3.3447579582209044e-09   2.2210401531799264e-09   3.1849832157930746e-09   2.1103009686393801e-09   3.0258081139465891e-09   2.0002260558587245e-09   2.8675907296404070e-09   1.8910630747253579e-09   2.7106859364099985e-09   1.7830569016512317e-09   2.5554445549804642e-09   1.6764490384775747e-09   2.4022125122913018e-09   1.5714770272176054e-09   2.2513300104782243e-09   1.4683738714450734e-09   2.1031307072705894e-09   1.3673674650215052e-09   1.9579409090432334e-09   1.2686800286660924e-09   1.8160787776658414e-09   1.1725275546477545e-09   1.6778535519659840e-09   1.0791192595605470e-09   1.5435647843951479e-09   9.8865704485129272e-10   1.4135015930622454e-09   9.0133496423889397e-10   1.2879419288815326e-09   8.1733869654869890e-10   1.1671518569443076e-09   7.3684502173951579e-10   1.0513848504123051e-09   6.6002129670351120e-10   9.4088109423500805e-10   5.8702492595544957e-10   8.3586679448614560e-10   5.1800282018428211e-10   7.3655348716127117e-10   4.5309083252373897e-10   6.4313733750443813e-10   3.9241315789402086e-10   5.5579841682536640e-10   3.3608167389941320e-10   4.7469993784581082e-10   2.8419519102977947e-10   3.9998742050333322e-10   2.3683856268691473e-10   3.3178774593435932e-10   1.9408157657449011e-10   2.7020803347463374e-10   1.5597749823261917e-10   2.1533423712440962e-10   1.2256104366715891e-10   1.6722929116508874e-10   9.3845373391367946e-11   1.2593051278812495e-10   6.9817308165967555e-11   9.1445735231979460e-11   5.0429050537186478e-11   6.3747163377387025e-11   3.5582277189430452e-11   4.2760869349621050e-11   2.5093011511405416e-11   2.8347190525004779e-11   1.8597105508496010e-11   2.0259953258033352e-11   1.2172522225564449e-11   1.8051134615305469e-11   1.0266402906111315e-10   7.9488145859299865e-11   1.4985449889229395e-10   1.4985449889223992e-10   2.0607152348418978e-10   2.0551949985417362e-10   2.7070337975398436e-10   2.6986661848573180e-10   3.4335167249740484e-10   3.4234815933951172e-10   4.2368021807905871e-10   4.2256394702269290e-10   5.1137644529981837e-10   5.1017042986801140e-10   6.0613551296895470e-10   6.0484738957020232e-10   7.0765293171717221e-10   7.0628242839057167e-10   8.1562099558328001e-10   8.1416359594309612e-10   9.2972697844379000e-10   9.2817579865832121e-10   1.0496522041002796e-09   1.0479990066670871e-09   1.1750715940972196e-09   1.1733073675332494e-09   1.3056535061762787e-09   1.3037688166841107e-09   1.4410597671648329e-09   1.4390449852104747e-09   1.5809458461582911e-09   1.5787913015325995e-09   1.7249611348071705e-09   1.7226572290719433e-09   1.8727493127760556e-09   1.8702866052705214e-09   2.0239487829031713e-09   2.0213180596183246e-09   2.1781931645982829e-09   2.1753854954174058e-09   2.3351118365633124e-09   2.3321186242158452e-09   2.4943305216358000e-09   2.4911435444003769e-09   2.6554719077512824e-09   2.6520833572459533e-09   2.8181562999511800e-09   2.8145588147905484e-09   2.9820022988737048e-09   2.9781889947914903e-09   3.1466275017474153e-09   3.1425919984869885e-09   3.3116492221631163e-09   3.3073856674487521e-09   3.4766852253114919e-09   3.4721883159930413e-09   3.6413544754208280e-09   3.6366194760103280e-09   3.8052778924457334e-09   3.8003006510425205e-09   3.9680791151253597e-09   3.9628560769027434e-09   4.1293852676841467e-09   4.1239134859174055e-09   4.2888277275156313e-09   4.2831048722715234e-09   4.4460428912684901e-09   4.4400672557954072e-09   4.6006729370149974e-09   4.5944434418414130e-09   4.7523665798209922e-09   4.7458827747021755e-09   4.9007798186557084e-09   4.8940418823605074e-09   5.0455766722920403e-09   5.0385854102935694e-09   5.1864299019122900e-09   5.1791867420947105e-09   5.3230217184274576e-09   5.3155287047801839e-09   5.4550444723888973e-09   5.4473042568322977e-09   5.5822013244342498e-09   5.5742171568450955e-09   5.7042068944900713e-09   5.6959826108820866e-09   5.8207878877572446e-09   5.8123278968536768e-09   5.9316836957719373e-09   5.9229929639376382e-09   6.0366469707662465e-09   6.0277310053963788e-09   6.1354441718291741e-09   6.1263090032862767e-09   6.2278560812396083e-09   6.2185082433995029e-09   6.3136782894883835e-09   6.3041247990498985e-09   6.3927216477960909e-09   6.3829699822640469e-09   6.4648126866261755e-09   6.4548707613233878e-09   6.5297939991731073e-09   6.5196701430643418e-09   6.5875245886834180e-09   6.5772275193589856e-09   6.6378801786119196e-09   6.6274189763465346e-09   6.6807534847242840e-09   6.6701375658049262e-09   6.7160544483641928e-09   6.7052935377237708e-09   6.7437104301838530e-09   6.7328145334436974e-09   6.7636663637719225e-09   6.7526457387858543e-09   6.7758848686329326e-09   6.7647499966441086e-09   6.7803463222398043e-09   6.7691078786963775e-09   6.7770488907887185e-09   6.7657177159678079e-09   6.7660085185376637e-09   6.7545955880138254e-09   6.7472588756975326e-09   6.7357752707807823e-09   6.7208512648498450e-09   6.7093081430730213e-09   6.6868544860875828e-09   6.6752630518305231e-09   6.6453546611120026e-09   6.6337261364761127e-09   6.5964550167685097e-09   6.5848006127011664e-09   6.5402756282298234e-09   6.5286065161277840e-09   6.4769531226363308e-09   6.4652804064006462e-09   6.4066403437933340e-09   6.3949750324185026e-09   6.3295059786228844e-09   6.3178589595062107e-09   6.2457341463042825e-09   6.2341161592479458e-09   6.1555239510251161e-09   6.1439455630479465e-09   6.0590889994478868e-09   6.0475605804566118e-09   5.9566568839333465e-09   5.9451885834544590e-09   5.8484686328183190e-09   5.8370703576727310e-09   5.7347781290405611e-09   5.7234595221773676e-09   5.6158514985146875e-09   5.6046219189887505e-09   5.4919664695927742e-09   5.4808349738713281e-09   5.3634117053403487e-09   5.3523870298352035e-09   5.2304861100243609e-09   5.2195766551244638e-09   5.0934981116607846e-09   5.0827119270802909e-09   4.9527649221377918e-09   4.9421096939716747e-09   4.8086117768144986e-09   4.7980948160262362e-09   4.6613711553925091e-09   4.6509993880546264e-09   4.5113819858557980e-09   4.5011619450887777e-09   4.3589888334078092e-09   4.3489266531273246e-09   4.2045410763447037e-09   4.1946424868755130e-09   4.0483920707177436e-09   4.0386623963823683e-09   3.8908983058553598e-09   3.8813424645666242e-09   3.7324185526207317e-09   3.7230410576235119e-09   3.5733130064067931e-09   3.5641179702179300e-09   3.4139424268224603e-09   3.4049335675184215e-09   3.2546672760124784e-09   3.2458479259608030e-09   3.0958468575292999e-09   3.0872199747026422e-09   2.9378384576162495e-09   2.9294066396701862e-09   2.7809964907664545e-09   2.7727619920302203e-09   2.6256716513123103e-09   2.6176364029501369e-09   2.4722100727039262e-09   2.4643757062761473e-09   2.3209524961345150e-09   2.3133203709058718e-09   2.1722334499452964e-09   2.1648046842685530e-09   2.0263804411389066e-09   2.0191559484290623e-09   1.8837131601925092e-09   1.8766936900137946e-09   1.7445427000628003e-09   1.7377288850610230e-09   1.6091707900830334e-09   1.6025631996256475e-09   1.4778890450627616e-09   1.4714882467142472e-09   1.3509782294849961e-09   1.3447848597148670e-09   1.2287075361777886e-09   1.2227223821382924e-09   1.1113338780468084e-09   1.1055579728109379e-09   9.9910119062774067e-10   9.9353592498512048e-10   8.9223974184548947e-10   8.8688699689585648e-10   7.9096544370581584e-10   7.8582774991548331e-10   6.9547915825594835e-10   6.9055988883186616e-10   6.0596598669849372e-10   6.0126959633240804e-10   5.2259452566083743e-10   5.1812685045866966e-10   4.4551606726404625e-10   4.4128470908026438e-10   3.7486370853919839e-10   3.7087853864000529e-10   3.1075131837905845e-10   3.0702515442552953e-10   2.5327228247578354e-10   2.4982182492497227e-10   2.0249790107063773e-10   1.9934507086941511e-10   1.5847523740053953e-10   1.5564915721154668e-10   1.2122408176896464e-10   1.1876412992052896e-10   9.0732462335872196e-11   8.8693189629852947e-11   6.6949721320378205e-11   6.5409144877860295e-11   4.9775487332133018e-11   4.8849792599887724e-11   3.9042147763893095e-11   3.8913122584980330e-11   3.4493067592948856e-11   3.5460145626978650e-11   2.8571273507842554e-11   3.8383835457159342e-11   1.5432370727488560e-10   1.1538364349060812e-10   2.0551949985413009e-10   2.0607152348400760e-10   2.6594157360986508e-10   2.6594157360977585e-10   3.3480777027551732e-10   3.3444924082913161e-10   4.1161957312544825e-10   4.1100867379481191e-10   4.9598271543638707e-10   4.9518213198156949e-10   5.8754785031546791e-10   5.8659472348060042e-10   6.8598575330514212e-10   6.8490102515468143e-10   7.9097523485694600e-10   7.8976945357273874e-10   9.0219667657951102e-10   9.0087371520533509e-10   1.0193284660089148e-09   1.0178878853245707e-09   1.1420450232154437e-09   1.1404835751929424e-09   1.2700157374147541e-09   1.2683283357332034e-09   1.4029044475230823e-09   1.4010848085920706e-09   1.5403692648225684e-09   1.5384103430139375e-09   1.6820626224382712e-09   1.6799569145799797e-09   1.8276314831004777e-09   1.8253712480959808e-09   1.9767176625540034e-09   1.9742950846409354e-09   2.1289582409417613e-09   2.1263655545670323e-09   2.2839860432789541e-09   2.2812156311491403e-09   2.4414301755571934e-09   2.4384746474556251e-09   2.6009166065277478e-09   2.5977688639073383e-09   2.7620687873594583e-09   2.7587220771622617e-09   2.9245083029613158e-09   2.9209562629615706e-09   3.0878555496938302e-09   3.0840922470716708e-09   3.2517304350426712e-09   3.2477503992936202e-09   3.4157530952108212e-09   3.4115513462819045e-09   3.5795446271459601e-09   3.5751166993651899e-09   3.7427278315576378e-09   3.7380697938953079e-09   3.9049279640270429e-09   3.9000364369262402e-09   4.0657734911536528e-09   4.0606456603502259e-09   4.2248968490950305e-09   4.2195304764758238e-09   4.3819352017844966e-09   4.3763286336416575e-09   4.5365311963370158e-09   4.5306833690085461e-09   4.6883337131810999e-09   4.6822441563146970e-09   4.8369986085024713e-09   4.8306674460178221e-09   4.9821894467940369e-09   4.9756173956362044e-09   5.1235782212199137e-09   5.1167665880088950e-09   5.2608460596134489e-09   5.2537967353123205e-09   5.3936839141671268e-09   5.3863993667968984e-09   5.5217932326278175e-09   5.5142764981613035e-09   5.6448866091006284e-09   5.6371412806450803e-09   5.7626884127466440e-09   5.7547186279766518e-09   5.8749353923626643e-09   5.8667458194434731e-09   5.9813772552001928e-09   5.9729730771842176e-09   6.0817772184420517e-09   6.0731641162514605e-09   6.1759125317256732e-09   6.1670966658112341e-09   6.2635749692318815e-09   6.2545629599631780e-09   6.3445712899169683e-09   6.3353701968708286e-09   6.4187236647720427e-09   6.4093409648417006e-09   6.4858700695093650e-09   6.4763136341595362e-09   6.5458646420893486e-09   6.5361427136234816e-09   6.5985780035595959e-09   6.5886991706150841e-09   6.6438975416202148e-09   6.6338707139051809e-09   6.6817276559357256e-09   6.6715620383838153e-09   6.7119899644997285e-09   6.7016950308342821e-09   6.7346234704559304e-09   6.7242089363157666e-09   6.7495846888193645e-09   6.7390604845298600e-09   6.7568477326803542e-09   6.7462239757266826e-09   6.7564043586470832e-09   6.7456913259584386e-09   6.7482639711988830e-09   6.7374720713502696e-09   6.7324535859783342e-09   6.7215933313279346e-09   6.7090177519496810e-09   6.6980997309004966e-09   6.6780184325362970e-09   6.6670532819045778e-09   6.6395348459966924e-09   6.6285332236511346e-09   6.5936632653044977e-09   6.5826358231109894e-09   6.5405167780588625e-09   6.5294741352156238e-09   6.4802250067431446e-09   6.4691777236195703e-09   6.4129337901839937e-09   6.4018923427403383e-09   6.3388048268651566e-09   6.3277795816207926e-09   6.2580152808111076e-09   6.2470164706459118e-09   6.1707573510501354e-09   6.1597950517149574e-09   6.0772378056834787e-09   6.0663219132187809e-09   5.9776774816666034e-09   5.9668176906980624e-09   5.8723107512955652e-09   5.8615165344348667e-09   5.7613849569508605e-09   5.7506655451560119e-09   5.6451598152433736e-09   5.6345241793950056e-09   5.5239067920490684e-09   5.5133636257073155e-09   5.3979084498963654e-09   5.3874661533553310e-09   5.2674577693454703e-09   5.2571244349889321e-09   5.1328574458262381e-09   5.1226408449321906e-09   4.9944191638818182e-09   4.9843267348141841e-09   4.8524628501556958e-09   4.8425016882203714e-09   4.7073159073596651e-09   4.6974927560937276e-09   4.5593124306902850e-09   4.5496336749420275e-09   4.4087924087470123e-09   4.3992640694269819e-09   4.2561009108119728e-09   4.2467286414596417e-09   4.1015872623795313e-09   4.0923763476063332e-09   3.9456042109142319e-09   3.9365595668064573e-09   3.7885070837815170e-09   3.7796332603472977e-09   3.6306529403240008e-09   3.6219541260835449e-09   3.4723997200200262e-09   3.4638797488561909e-09   3.3141053887006901e-09   3.3057677490614010e-09   3.1561270847332836e-09   3.1479749313557834e-09   2.9988202670959363e-09   2.9908564354025446e-09   2.8425378671763489e-09   2.8347648905140157e-09   2.6876294461618402e-09   2.6800495761237753e-09   2.5344403596875947e-09   2.5270555897614144e-09   2.3833109315348335e-09   2.3761230243961387e-09   2.2345756378109037e-09   2.2275861566424669e-09   2.0885623032117347e-09   2.0817726474606460e-09   1.9455913105763889e-09   1.9390027567729065e-09   1.8059748249463480e-09   1.7995885732074772e-09   1.6700160330523451e-09   1.6638332601431683e-09   1.5380083989059993e-09   1.5320303189224909e-09   1.4102349358617679e-09   1.4044628698729942e-09   1.2869674951680217e-09   1.2814029515060015e-09   1.1684660704140838e-09   1.1631108378244655e-09   1.0549781167976074e-09   1.0498343732734851e-09   9.4673788320876765e-10   9.4180832422333568e-10   8.4396575410265198e-10   8.3925374521243757e-10   7.4686759672155834e-10   7.4237735714353576e-10   6.5563410734179694e-10   6.5137093355771178e-10   5.7044014760754923e-10   5.6641068947430840e-10   4.9144405852499242e-10   4.8765666539423871e-10   4.1878693475301943e-10   4.1525209653543402e-10   3.5259183504779101e-10   3.4932275433330882e-10   2.9296289525301735e-10   2.8997624361537259e-10   2.3998429734675471e-10   2.3730123520500753e-10   1.9371903120611776e-10   1.9136661139465451e-10   1.5420736569677949e-10   1.5222050456209838e-10   1.2146492785807309e-10   1.1988922735093201e-10   9.5480292539098488e-11   9.4376153868219896e-11   7.6212080474872912e-11   7.5660801027844958e-11   6.3586070064894700e-11   6.3698987514915770e-11   5.7495569352788431e-11   5.8427302353064834e-11   5.7824341370412014e-11   5.9784817739538495e-11   5.0574879891450406e-11   6.7802788014617905e-11   2.1432086672834407e-10   1.5699515294754131e-10   2.6986661848558559e-10   2.7070337975410383e-10   3.3444924082907289e-10   3.3480777027549695e-10   4.0734503135646958e-10   4.0734503135657262e-10   4.8804231795497088e-10   4.8776473878540252e-10   5.7612735655433675e-10   5.7562530818521134e-10   6.7123236801966352e-10   6.7054117953888003e-10   7.7301209111339173e-10   7.7215493293578746e-10   8.8113194030460760e-10   8.8012327597385242e-10   9.9526136319810606e-10   9.9410935554763897e-10   1.1150698968856691e-09   1.1137781707265615e-09   1.2402247982790346e-09   1.2387937321801783e-09   1.3703896506163010e-09   1.3688173167059986e-09   1.5052235962847661e-09   1.5035064430923177e-09   1.64438098