<?xml version="1.0"?>
<VTKFile type="UnstructuredGrid"  version="0.1"  >
<UnstructuredGrid>
<Piece  NumberOfPoints="16641" NumberOfCells="32768">
<Points>
<DataArray  type="Float64"  NumberOfComponents="3"  format="ascii">0 0 0  0.0078125 0 0  0.015625 0 0  0.0234375 0 0  0.03125 0 0  0.0390625 0 0  0.046875 0 0  0.0546875 0 0  0.0625 0 0  0.0703125 0 0  0.078125 0 0  0.0859375 0 0  0.09375 0 0  0.1015625 0 0  0.109375 0 0  0.1171875 0 0  0.125 0 0  0.1328125 0 0  0.140625 0 0  0.1484375 0 0  0.15625 0 0  0.1640625 0 0  0.171875 0 0  0.1796875 0 0  0.1875 0 0  0.1953125 0 0  0.203125 0 0  0.2109375 0 0  0.21875 0 0  0.2265625 0 0  0.234375 0 0  0.2421875 0 0  0.25 0 0  0.2578125 0 0  0.265625 0 0  0.2734375 0 0  0.28125 0 0  0.2890625 0 0  0.296875 0 0  0.3046875 0 0  0.3125 0 0  0.3203125 0 0  0.328125 0 0  0.3359375 0 0  0.34375 0 0  0.3515625 0 0  0.359375 0 0  0.3671875 0 0  0.375 0 0  0.3828125 0 0  0.390625 0 0  0.3984375 0 0  0.40625 0 0  0.4140625 0 0  0.421875 0 0  0.4296875 0 0  0.4375 0 0  0.4453125 0 0  0.453125 0 0  0.4609375 0 0  0.46875 0 0  0.4765625 0 0  0.484375 0 0  0.4921875 0 0  0.5 0 0  0.5078125 0 0  0.515625 0 0  0.5234375 0 0  0.53125 0 0  0.5390625 0 0  0.546875 0 0  0.5546875 0 0  0.5625 0 0  0.5703125 0 0  0.578125 0 0  0.5859375 0 0  0.59375 0 0  0.6015625 0 0  0.609375 0 0  0.6171875 0 0  0.625 0 0  0.6328125 0 0  0.640625 0 0  0.6484375 0 0  0.65625 0 0  0.6640625 0 0  0.671875 0 0  0.6796875 0 0  0.6875 0 0  0.6953125 0 0  0.703125 0 0  0.7109375 0 0  0.71875 0 0  0.7265625 0 0  0.734375 0 0  0.7421875 0 0  0.75 0 0  0.7578125 0 0  0.765625 0 0  0.7734375 0 0  0.78125 0 0  0.7890625 0 0  0.796875 0 0  0.8046875 0 0  0.8125 0 0  0.8203125 0 0  0.828125 0 0  0.8359375 0 0  0.84375 0 0  0.8515625 0 0  0.859375 0 0  0.8671875 0 0  0.875 0 0  0.8828125 0 0  0.890625 0 0  0.8984375 0 0  0.90625 0 0  0.9140625 0 0  0.921875 0 0  0.9296875 0 0  0.9375 0 0  0.9453125 0 0  0.953125 0 0  0.9609375 0 0  0.96875 0 0  0.9765625 0 0  0.984375 0 0  0.9921875 0 0  1 0 0  0 0.0078125 0  0.0078125 0.0078125 0  0.015625 0.0078125 0  0.0234375 0.0078125 0  0.03125 0.0078125 0  0.0390625 0.0078125 0  0.046875 0.0078125 0  0.0546875 0.0078125 0  0.0625 0.0078125 0  0.0703125 0.0078125 0  0.078125 0.0078125 0  0.0859375 0.0078125 0  0.09375 0.0078125 0  0.1015625 0.0078125 0  0.109375 0.0078125 0  0.1171875 0.0078125 0  0.125 0.0078125 0  0.1328125 0.0078125 0  0.140625 0.0078125 0  0.1484375 0.0078125 0  0.15625 0.0078125 0  0.1640625 0.0078125 0  0.171875 0.0078125 0  0.1796875 0.0078125 0  0.1875 0.0078125 0  0.1953125 0.0078125 0  0.203125 0.0078125 0  0.2109375 0.0078125 0  0.21875 0.0078125 0  0.2265625 0.0078125 0  0.234375 0.0078125 0  0.2421875 0.0078125 0  0.25 0.0078125 0  0.2578125 0.0078125 0  0.265625 0.0078125 0  0.2734375 0.0078125 0  0.28125 0.0078125 0  0.2890625 0.0078125 0  0.296875 0.0078125 0  0.3046875 0.0078125 0  0.3125 0.0078125 0  0.3203125 0.0078125 0  0.328125 0.0078125 0  0.3359375 0.0078125 0  0.34375 0.0078125 0  0.3515625 0.0078125 0  0.359375 0.0078125 0  0.3671875 0.0078125 0  0.375 0.0078125 0  0.3828125 0.0078125 0  0.390625 0.0078125 0  0.3984375 0.0078125 0  0.40625 0.0078125 0  0.4140625 0.0078125 0  0.421875 0.0078125 0  0.4296875 0.0078125 0  0.4375 0.0078125 0  0.4453125 0.0078125 0  0.453125 0.0078125 0  0.4609375 0.0078125 0  0.46875 0.0078125 0  0.4765625 0.0078125 0  0.484375 0.0078125 0  0.4921875 0.0078125 0  0.5 0.0078125 0  0.5078125 0.0078125 0  0.515625 0.0078125 0  0.5234375 0.0078125 0  0.53125 0.0078125 0  0.5390625 0.0078125 0  0.546875 0.0078125 0  0.5546875 0.0078125 0  0.5625 0.0078125 0  0.5703125 0.0078125 0  0.578125 0.0078125 0  0.5859375 0.0078125 0  0.59375 0.0078125 0  0.6015625 0.0078125 0  0.609375 0.0078125 0  0.6171875 0.0078125 0  0.625 0.0078125 0  0.6328125 0.0078125 0  0.640625 0.0078125 0  0.6484375 0.0078125 0  0.65625 0.0078125 0  0.6640625 0.0078125 0  0.671875 0.0078125 0  0.6796875 0.0078125 0  0.6875 0.0078125 0  0.6953125 0.0078125 0  0.703125 0.0078125 0  0.7109375 0.0078125 0  0.71875 0.0078125 0  0.7265625 0.0078125 0  0.734375 0.0078125 0  0.7421875 0.0078125 0  0.75 0.0078125 0  0.7578125 0.0078125 0  0.765625 0.0078125 0  0.7734375 0.0078125 0  0.78125 0.0078125 0  0.7890625 0.0078125 0  0.796875 0.0078125 0  0.8046875 0.0078125 0  0.8125 0.0078125 0  0.8203125 0.0078125 0  0.828125 0.0078125 0  0.8359375 0.0078125 0  0.84375 0.0078125 0  0.8515625 0.0078125 0  0.859375 0.0078125 0  0.8671875 0.0078125 0  0.875 0.0078125 0  0.8828125 0.0078125 0  0.890625 0.0078125 0  0.8984375 0.0078125 0  0.90625 0.0078125 0  0.9140625 0.0078125 0  0.921875 0.0078125 0  0.9296875 0.0078125 0  0.9375 0.0078125 0  0.9453125 0.0078125 0  0.953125 0.0078125 0  0.9609375 0.0078125 0  0.96875 0.0078125 0  0.9765625 0.0078125 0  0.984375 0.0078125 0  0.9921875 0.0078125 0  1 0.0078125 0  0 0.015625 0  0.0078125 0.015625 0  0.015625 0.015625 0  0.0234375 0.015625 0  0.03125 0.015625 0  0.0390625 0.015625 0  0.046875 0.015625 0  0.0546875 0.015625 0  0.0625 0.015625 0  0.0703125 0.015625 0  0.078125 0.015625 0  0.0859375 0.015625 0  0.09375 0.015625 0  0.1015625 0.015625 0  0.109375 0.015625 0  0.1171875 0.015625 0  0.125 0.015625 0  0.1328125 0.015625 0  0.140625 0.015625 0  0.1484375 0.015625 0  0.15625 0.015625 0  0.1640625 0.015625 0  0.171875 0.015625 0  0.1796875 0.015625 0  0.1875 0.015625 0  0.1953125 0.015625 0  0.203125 0.015625 0  0.2109375 0.015625 0  0.21875 0.015625 0  0.2265625 0.015625 0  0.234375 0.015625 0  0.2421875 0.015625 0  0.25 0.015625 0  0.2578125 0.015625 0  0.265625 0.015625 0  0.2734375 0.015625 0  0.28125 0.015625 0  0.2890625 0.015625 0  0.296875 0.015625 0  0.3046875 0.015625 0  0.3125 0.015625 0  0.3203125 0.015625 0  0.328125 0.015625 0  0.3359375 0.015625 0  0.34375 0.015625 0  0.3515625 0.015625 0  0.359375 0.015625 0  0.3671875 0.015625 0  0.375 0.015625 0  0.3828125 0.015625 0  0.390625 0.015625 0  0.3984375 0.015625 0  0.40625 0.015625 0  0.4140625 0.015625 0  0.421875 0.015625 0  0.4296875 0.015625 0  0.4375 0.015625 0  0.4453125 0.015625 0  0.453125 0.015625 0  0.4609375 0.015625 0  0.46875 0.015625 0  0.4765625 0.015625 0  0.484375 0.015625 0  0.4921875 0.015625 0  0.5 0.015625 0  0.5078125 0.015625 0  0.515625 0.015625 0  0.5234375 0.015625 0  0.53125 0.015625 0  0.5390625 0.015625 0  0.546875 0.015625 0  0.5546875 0.015625 0  0.5625 0.015625 0  0.5703125 0.015625 0  0.578125 0.015625 0  0.5859375 0.015625 0  0.59375 0.015625 0  0.6015625 0.015625 0  0.609375 0.015625 0  0.6171875 0.015625 0  0.625 0.015625 0  0.6328125 0.015625 0  0.640625 0.015625 0  0.6484375 0.015625 0  0.65625 0.015625 0  0.6640625 0.015625 0  0.671875 0.015625 0  0.6796875 0.015625 0  0.6875 0.015625 0  0.6953125 0.015625 0  0.703125 0.015625 0  0.7109375 0.015625 0  0.71875 0.015625 0  0.7265625 0.015625 0  0.734375 0.015625 0  0.7421875 0.015625 0  0.75 0.015625 0  0.7578125 0.015625 0  0.765625 0.015625 0  0.7734375 0.015625 0  0.78125 0.015625 0  0.7890625 0.015625 0  0.796875 0.015625 0  0.8046875 0.015625 0  0.8125 0.015625 0  0.8203125 0.015625 0  0.828125 0.015625 0  0.8359375 0.015625 0  0.84375 0.015625 0  0.8515625 0.015625 0  0.859375 0.015625 0  0.8671875 0.015625 0  0.875 0.015625 0  0.8828125 0.015625 0  0.890625 0.015625 0  0.8984375 0.015625 0  0.90625 0.015625 0  0.9140625 0.015625 0  0.921875 0.015625 0  0.9296875 0.015625 0  0.9375 0.015625 0  0.9453125 0.015625 0  0.953125 0.015625 0  0.9609375 0.015625 0  0.96875 0.015625 0  0.9765625 0.015625 0  0.984375 0.015625 0  0.9921875 0.015625 0  1 0.015625 0  0 0.0234375 0  0.0078125 0.0234375 0  0.015625 0.0234375 0  0.0234375 0.0234375 0  0.03125 0.0234375 0  0.0390625 0.0234375 0  0.046875 0.0234375 0  0.0546875 0.0234375 0  0.0625 0.0234375 0  0.0703125 0.0234375 0  0.078125 0.0234375 0  0.0859375 0.0234375 0  0.09375 0.0234375 0  0.1015625 0.0234375 0  0.109375 0.0234375 0  0.1171875 0.0234375 0  0.125 0.0234375 0  0.1328125 0.0234375 0  0.140625 0.0234375 0  0.1484375 0.0234375 0  0.15625 0.0234375 0  0.1640625 0.0234375 0  0.171875 0.0234375 0  0.1796875 0.0234375 0  0.1875 0.0234375 0  0.1953125 0.0234375 0  0.203125 0.0234375 0  0.2109375 0.0234375 0  0.21875 0.0234375 0  0.2265625 0.0234375 0  0.234375 0.0234375 0  0.2421875 0.0234375 0  0.25 0.0234375 0  0.2578125 0.0234375 0  0.265625 0.0234375 0  0.2734375 0.0234375 0  0.28125 0.0234375 0  0.2890625 0.0234375 0  0.296875 0.0234375 0  0.3046875 0.0234375 0  0.3125 0.0234375 0  0.3203125 0.0234375 0  0.328125 0.0234375 0  0.3359375 0.0234375 0  0.34375 0.0234375 0  0.3515625 0.0234375 0  0.359375 0.0234375 0  0.3671875 0.0234375 0  0.375 0.0234375 0  0.3828125 0.0234375 0  0.390625 0.0234375 0  0.3984375 0.0234375 0  0.40625 0.0234375 0  0.4140625 0.0234375 0  0.421875 0.0234375 0  0.4296875 0.0234375 0  0.4375 0.0234375 0  0.4453125 0.0234375 0  0.453125 0.0234375 0  0.4609375 0.0234375 0  0.46875 0.0234375 0  0.4765625 0.0234375 0  0.484375 0.0234375 0  0.4921875 0.0234375 0  0.5 0.0234375 0  0.5078125 0.0234375 0  0.515625 0.0234375 0  0.5234375 0.0234375 0  0.53125 0.0234375 0  0.5390625 0.0234375 0  0.546875 0.0234375 0  0.5546875 0.0234375 0  0.5625 0.0234375 0  0.5703125 0.0234375 0  0.578125 0.0234375 0  0.5859375 0.0234375 0  0.59375 0.0234375 0  0.6015625 0.0234375 0  0.609375 0.0234375 0  0.6171875 0.0234375 0  0.625 0.0234375 0  0.6328125 0.0234375 0  0.640625 0.0234375 0  0.6484375 0.0234375 0  0.65625 0.0234375 0  0.6640625 0.0234375 0  0.671875 0.0234375 0  0.6796875 0.0234375 0  0.6875 0.0234375 0  0.6953125 0.0234375 0  0.703125 0.0234375 0  0.7109375 0.0234375 0  0.71875 0.0234375 0  0.7265625 0.0234375 0  0.734375 0.0234375 0  0.7421875 0.0234375 0  0.75 0.0234375 0  0.7578125 0.0234375 0  0.765625 0.0234375 0  0.7734375 0.0234375 0  0.78125 0.0234375 0  0.7890625 0.0234375 0  0.796875 0.0234375 0  0.8046875 0.0234375 0  0.8125 0.0234375 0  0.8203125 0.0234375 0  0.828125 0.0234375 0  0.8359375 0.0234375 0  0.84375 0.0234375 0  0.8515625 0.0234375 0  0.859375 0.0234375 0  0.8671
[...]
<CellData  Scalars="f_71700"> 
<DataArray  type="Float64"  Name="f_71700"  format="ascii">2.3540903295234969e-06   2.3540903295235019e-06   2.3495390526906968e-06   2.3509280824088770e-06   2.3421965764246672e-06   2.3449709404038361e-06   2.3320790683650271e-06   2.3362317582421015e-06   2.3192095575590672e-06   2.3247302663709253e-06   2.3036177904842214e-06   2.3104929348156166e-06   2.2853401194691753e-06   2.2935528695621330e-06   2.2644193954405724e-06   2.2739497132282497e-06   2.2409048544962250e-06   2.2517295394765662e-06   2.2148519939199612e-06   2.2269447367579758e-06   2.1863224357353914e-06   2.1996538794613835e-06   2.1553837770066937e-06   2.1699215856603973e-06   2.1221094266397344e-06   2.1378183611899650e-06   2.0865784287281635e-06   2.1034204300825974e-06   2.0488752726613647e-06   2.0668095515628346e-06   2.0090896903211217e-06   2.0280728239104532e-06   1.9673164407721626e-06   1.9873024755823311e-06   1.9236550829096264e-06   1.9445956440399777e-06   1.8782097365741874e-06   1.9000541427783328e-06   1.8310888326848243e-06   1.8537842170934792e-06   1.7824048529734815e-06   1.8058962891575762e-06   1.7322740599369647e-06   1.7565046930049052e-06   1.6808162176480699e-06   1.7057274000583482e-06   1.6281543040925957e-06   1.6536857358533696e-06   1.5744142157223697e-06   1.6005040886360601e-06   1.5197244649329977e-06   1.5463096105367345e-06   1.4642158711944804e-06   1.4912319120372838e-06   1.4080212465781016e-06   1.4354027504680394e-06   1.3512750764372391e-06   1.3789557132846090e-06   1.2941131960126081e-06   1.3220258968888867e-06   1.2366724637409638e-06   1.2647495817672116e-06   1.1790904320567748e-06   1.2072639047334035e-06   1.1215050164798708e-06   1.1497065290630129e-06   1.0640541637892072e-06   1.0922153133175671e-06   1.0068755200829158e-06   1.0349279796602397e-06   9.5010609952612966e-07   9.7798178245757353e-07   8.9388195458674364e-07   9.2151317797535487e-07   8.3833784855503428e-07   8.6565749596034468e-07   7.8360693113779325e-07   8.1054861390204060e-07   7.2982041791055929e-07   7.5631863476447022e-07   6.7710727440188332e-07   7.0309756896127139e-07   6.2559390557213572e-07   6.5101302134503231e-07   5.7540385143725315e-07   6.0018988396631279e-07   5.2665748957184796e-07   5.5075003534431021e-07   4.7947174521025689e-07   5.0281204697411642e-07   4.3395980964550517e-07   4.5649089778137424e-07   3.9023086760609346e-07   4.1189769721176886e-07   3.4838983426899352e-07   3.6913941762535017e-07   3.0853710254346286e-07   3.2831863664158854e-07   2.7076830123645424e-07   2.8953329005689716e-07   2.3517406468292172e-07   2.5287643593142137e-07   2.0183981439761037e-07   2.1843603041536329e-07   1.7084555327541852e-07   1.8629471585490203e-07   1.4226567283709454e-07   1.5652962169018763e-07   1.1616877398577539e-07   1.2921217862620991e-07   9.2617501707148519e-08   1.0440794652477092e-07   7.1668394112095020e-08   8.2176456433223134e-08   5.3371746186555474e-08   6.2571067131792467e-08   3.7771488577487183e-08   4.5638836544868690e-08   2.4905081707297386e-08   3.1420408328691357e-08   1.4803425472849191e-08   1.9949913906620840e-08   7.4907847466345105e-09   1.1254890190935300e-08   2.9847308603091534e-09   5.3562131882627516e-09   1.2960992116060970e-09   2.2680476499437190e-09   2.4289630971817886e-09   1.9978128882791508e-09   6.3806238344803879e-09   4.5461648416268033e-09   1.3141617196537660e-08   9.9069944315477277e-09   2.2695736144148896e-08   1.8067442215992476e-08   3.5020069800585900e-08   2.9007929303298052e-08   5.0085058574835475e-08   4.2702204452296476e-08   6.7854565300151900e-08   5.9117407245065789e-08   8.8285962216421479e-08   7.8214147179572194e-08   1.1133023358613614e-07   9.9946598491673892e-08   1.3693209369649512e-07   1.2426261047733204e-07   1.6503011996257803e-07   1.5110383304873018e-07   1.9555690081032841e-07   1.8040585722170997e-07   2.2843919798243995e-07   2.1209837019437883e-07   2.6359812287513016e-07   2.4610532464409720e-07   3.0094932648026064e-07   2.8234512183226707e-07   3.4040320247409575e-07   3.2073080807650916e-07   3.8186510296240136e-07   3.6117028411516357e-07   4.2523556636098890e-07   4.0356652685841310e-07   4.7041055686183886e-07   4.4781782299172061e-07   5.1728171490562397e-07   4.9381801386559689e-07   5.6573661805732147e-07   5.4145675108340368e-07   6.1565905165350381e-07   5.9061976216693856e-07   6.6692928856879254e-07   6.4118912565991356e-07   7.1942437742549309e-07   6.9304355500573939e-07   7.7301843855030060e-07   7.4605869051219469e-07   8.2758296696351053e-07   8.0010739869961292e-07   8.8298714166912998e-07   8.5506007830798976e-07   9.3909814049838028e-07   9.1078497222667972e-07   9.9578145974658758e-07   9.6714848458969876e-07   1.0529012378310510e-06   1.0240155022728729e-06   1.1103205821882091e-06   1.0812497200181717e-06   1.1679018986204791e-06   1.1387139683931144e-06   1.2255072222962994e-06   1.1962705438017307e-06   1.2829985496047074e-06   1.2537815397421951e-06   1.3402381700615105e-06   1.3111091785154472e-06   1.3970889974649823e-06   1.3681161425803984e-06   1.4534148995016526e-06   1.4246659047556801e-06   1.5090810250031374e-06   1.4806230564704985e-06   1.5639541280650604e-06   1.5358536332691303e-06   1.6179028882419165e-06   1.5902254367823014e-06   1.6707982260445000e-06   1.6436083523882274e-06   1.7225136129754515e-06   1.6958746617901380e-06   1.7729253753518992e-06   1.7468993497581919e-06   1.8219129911791154e-06   1.7965604042884603e-06   1.8693593793544735e-06   1.8447391094520494e-06   1.9151511804996624e-06   1.8913203302243499e-06   1.9591790287366277e-06   1.9361927885984486e-06   2.0013378137453852e-06   1.9792493303111788e-06   2.0415269324604367e-06   2.0203871815276441e-06   2.0796505297871377e-06   2.0595081948531581e-06   2.1156177277394955e-06   2.0965190840603464e-06   2.1493428424230901e-06   2.1313316469430306e-06   2.1807455883065860e-06   2.1638629757244582e-06   2.2097512692382108e-06   2.1940356544622789e-06   2.2362909556718864e-06   2.2217779428975638e-06   2.2603016475545532e-06   2.2470239461839418e-06   2.2817264222829615e-06   2.2697137698858583e-06   2.3005145670249132e-06   2.2897936595208631e-06   2.3166216944410921e-06   2.3072161236585709e-06   2.3300098402350007e-06   2.3219400389726034e-06   2.3406475394553436e-06   2.3339307341186190e-06   2.3485098743153415e-06   2.3431600450978468e-06   2.3535784728152968e-06   2.3496063211141439e-06   2.3558413809734790e-06   2.3532543028380413e-06   2.3509280824088791e-06   2.3495390526907066e-06   2.3463948450164806e-06   2.3463948450164823e-06   2.3390761672420996e-06   2.3404648216110420e-06   2.3289888962269960e-06   2.3317625120681525e-06   2.3161563286463106e-06   2.3203079012568630e-06   2.3006083048413812e-06   2.3061275316958124e-06   2.2823811803846879e-06   2.2892544832199105e-06   2.2615177544929652e-06   2.2697283094165320e-06   2.2380671735727739e-06   2.2475949491095227e-06   2.2120848160773760e-06   2.2229066190551358e-06   2.1836321610887879e-06   2.1957216902507519e-06   2.1527766417366716e-06   2.1661045489430131e-06   2.1195914841008715e-06   2.1341254429723720e-06   2.0841555320955126e-06   2.0998603139292594e-06   2.0465530587905492e-06   2.0633906155607298e-06   2.0068735646312712e-06   2.0248031188740865e-06   1.9652115630400701e-06   1.9841897044019785e-06   1.9216663539099001e-06   1.9416471421227201e-06   1.8763417855289587e-06   1.8972768595652406e-06   1.8293460055064858e-06   1.8511846986437265e-06   1.7807912012936396e-06   1.8034806618112736e-06   1.7307933309231443e-06   1.7542786481383331e-06   1.6794718446138352e-06   1.7036961799489705e-06   1.6269493979112943e-06   1.6518541206752058e-06   1.5733515570528464e-06   1.5988763846063053e-06   1.5188064972688376e-06   1.5448896392337608e-06   1.4634446947470443e-06   1.4900230009103632e-06   1.4073986130032439e-06   1.4344077245550576e-06   1.3508023844147823e-06   1.3781768881558744e-06   1.2937914876859653e-06   1.3214650728290148e-06   1.2365024220226048e-06   1.2644080392094039e-06   1.1790723788056916e-06   1.2071424009514110e-06   1.1216389115526477e-06   1.1498052961308625e-06   1.0643396049654179e-06   1.0925340573396237e-06   1.0073117438668095e-06   1.0354658812703177e-06   9.5069198281787933e-07   9.7873749858937115e-07   8.9461601722257702e-07   9.2248484489563266e-07   8.3921825670780582e-07   8.6684273355912837e-07   7.8463150156894006e-07   8.1194453122911032e-07   7.3098662306544467e-07   7.5792183679715741e-07   6.7841224833393268e-07   7.0490416458875056e-07   6.2703445068212275e-07   6.5301863254952636e-07   5.7697644601176121e-07   6.0238965617802759e-07   5.2835829610298164e-07   5.5313864894621993e-07   4.8129661947593465e-07   5.0538372992884745e-07   4.3590431052950936e-07   4.5923943934877906e-07   3.9229026763356534e-07   4.1481646272612739e-07   3.5055913083246499e-07   3.7222136429464296e-07   3.1081102979289128e-07   3.3155633033262556e-07   2.7314134260427438e-07   2.9291892302428509e-07   2.3764046601425109e-07   2.5640184545073425e-07   2.0439359765474791e-07   2.2209271827127719e-07   1.7348053078300380e-07   1.9007386864195638e-07   1.4497546203418987e-07   1.6042213187458728e-07   1.1894681264969948e-07   1.3320866631926169e-07   9.5457063612309632e-08   1.0849878191533470e-07   7.4562605086393007e-08   8.6351782825007399e-08   5.6313600526993806e-08   6.6820824530616891e-08   4.0753865784875038e-08   4.9952785739069127e-08   2.7920763501362451e-08   3.5788155404146560e-08   1.7845113045342780e-08   2.4360935138415101e-08   1.0551116212137643e-08   1.5698557250907287e-08   6.0562988621207039e-09   9.8218186084174845e-09   4.3714686408904994e-09   6.7448304800494764e-09   5.5006888825474892e-09   6.4749844860392006e-09   9.4412687592788262e-09   9.0129347333313951e-09   1.6183769701122053e-08   1.4352596180903791e-08   2.5712028070139345e-08   2.2481159238783619e-08   3.8003194034647640e-08   3.3379120565818230e-08   5.3027786549274921e-08   4.7020329991528889e-08   7.0749764308459713e-08   6.3372053449038450e-08   9.1126612501767033e-08   8.2395051767094654e-08   1.1410944516199941e-07   1.0404367513115617e-07   1.3964312285868690e-07   1.2826597298541160e-07   1.6766638545273539e-07   1.5500381911002297e-07   1.9811199959240676e-07   1.8419305157267867e-07   2.3090692059342310e-07   2.1576362721590626e-07   2.6597246831387626e-07   2.4963979030690358e-07   3.0322451659744660e-07   2.8574025494338351e-07   3.4257369582932126e-07   3.2397840077512831e-07   3.8392560811492053e-07   3.6426248156787752e-07   4.2718105456158253e-07   4.0649584610766838e-07   4.7223627411548054e-07   4.5057717090934260e-07   5.1898319337532013e-07   4.9640070417123939e-07   5.6730968678243995e-07   5.4385652038390321e-07   6.1709984655578857e-07   5.9283078497899764e-07   6.6823426172184306e-07   6.4320602838082124e-07   7.2059030556600670e-07   6.9486142879557142e-07   7.7404243080966512e-07   7.4767310305873200e-07   8.2846247180167286e-07   8.0151440483664718e-07   8.8371995299260420e-07   8.5625622946097672e-07   9.3968240294971048e-07   9.1176732466278660e-07   9.9621567315022477e-07   9.6791460645259588e-07   1.0531842607854858e-06   1.0245634793860525e-06   1.1104516347975687e-06   1.0815781604386012e-06   1.1678805643544876e-06   1.1388220057111491e-06   1.2253334489790036e-06   1.1961578391718265e-06   1.2826726495257364e-06   1.2534482826448156e-06   1.3397608192118888e-06   1.3105560862449185e-06   1.3964612338982907e-06   1.3673444584617942e-06   1.4526381208237777e-06   1.4236773950946134e-06   1.5081569849988336e-06   1.4794200062419055e-06   1.5628849324673135e-06   1.5344388405575789e-06   1.6166909896552180e-06   1.5886022059856607e-06   1.6694464180355814e-06   1.6417804862017711e-06   1.7210250233433945e-06   1.6938464519910402e-06   1.7713034585969066e-06   1.7446755668120463e-06   1.8201615201868132e-06   1.7941462858043556e-06   1.8674824363164334e-06   1.8421403475137492e-06   1.9131531470939293e-06   1.8885430576293180e-06   1.9570645755917002e-06   1.9332435640387505e-06   1.9991118892147134e-06   1.9761351225331506e-06   2.0391947507364495e-06   2.0171153525114583e-06   2.0772175583861604e-06   2.0560864820535028e-06   2.1130896743904819e-06   2.0929555817563939e-06   2.1467256413979190e-06   2.1276347867478153e-06   2.1780453862323969e-06   2.1600415063080219e-06   2.2069744104395512e-06   2.1900986205524879e-06   2.2334439670993350e-06   2.2177346636308363e-06   2.2573912233759626e-06   2.2428839928991429e-06   2.2787594082478688e-06   2.2654869434898230e-06   2.2974979447868282e-06   2.2854899676328692e-06   2.3135625661895077e-06   2.3028457579106304e-06   2.3269154143962487e-06   2.3175133532657175e-06   2.3375251193103366e-06   2.3294582257613190e-06   2.3453668546719028e-06   2.3386523441704879e-06   2.3504223618398091e-06   2.3450742058191805e-06   2.3526799242767523e-06   2.3487088203593727e-06   2.3449709404038327e-06   2.3421965764246740e-06   2.3404648216110335e-06   2.3390761672420954e-06   2.3331865548555932e-06   2.3331865548555974e-06   2.3231530440094304e-06   2.3245413286965952e-06   2.3103875939590879e-06   2.3131604766080980e-06   2.2949199856496021e-06   2.2990704683105457e-06   2.2767864564910512e-06   2.2823042439900858e-06   2.2560296368303540e-06   2.2629011588639877e-06   2.2326984596969779e-06   2.2409069009464789e-06   2.2068480502082399e-06   2.2163733883914403e-06   2.1785395974820930e-06   2.1893586492418181e-06   2.1478402105732337e-06   2.1599266850886839e-06   2.1148227593885960e-06   2.1281473195749433e-06   2.0795657012757579e-06   2.0940960324215336e-06   2.0421528938668605e-06   2.0578537795405819e-06   2.0026733947217544e-06   2.0195067997619939e-06   1.9612212483023251e-06   1.9791464086874888e-06   1.9178952608193092e-06   1.9368687802000309e-06   1.8727987635169971e-06   1.8927747161730436e-06   1.8260393649685987e-06   1.8469694049413287e-06   1.7777286929933514e-06   1.7995621691282334e-06   1.7279821268191062e-06   1.7506662034373531e-06   1.6769185201385837e-06   1.7003983030458644e-06   1.6246599157318846e-06   1.6488785832569469e-06   1.5713312523431942e-06   1.5962301910890119e-06   1.5170600645211894e-06   1.5425790094984749e-06   1.4619761761495040e-06   1.4880533549520834e-06   1.4062113884050956e-06   1.4327836690794199e-06   1.3498991629020339e-06   1.3769022051490788e-06   1.2931743007828754e-06   1.3205427101284509e-06   1.2361726185356489e-06   1.2638401030938430e-06   1.1790306213171932e-06   1.2069301507670888e-06   1.1218851745745090e-06   1.1499491409656272e-06   1.0648731747552998e-06   1.0930335547511394e-06   1.0081312199039785e-06   1.0363197380711783e-06   9.5179528093872338e-07   9.7994357368667660e-07   8.9600037440415908e-07   9.2404015417661435e-07   8.4088023748947414e-07   8.6874345681163462e-07   7.8656700609615579e-07   8.1418602107995205e-07   7.3319089673492330e-07   7.6049862964581981e-07   6.8087989301814083e-07   7.0780999351135936e-07   6.2975943750632212e-07   6.5624644213934939e-07   5.7995212965112920e-07   6.0593161929076865e-07   5.3157743056701507e-07   5.5698618530519433e-07   4.8475137534170072e-07   5.0952752654878636e-07   4.3958629358153590e-07   4.6366947272714725e-07   3.9619053886742092e-07   4.1952202274901368e-07   3.5466822777167847e-07   3.7719107980104086e-07   3.1511898907005292e-07   3.3677819627261533e-07   2.7763772375006805e-07   2.9838032914962798e-07   2.4231437640049835e-07   2.6208960646456537e-07   2.0923371852663317e-07   2.2799310536906153e-07   1.7847514432278399e-07   1.9617264236329269e-07   1.5011247938827427e-07   1.6670457619021814e-07   1.2421380285296654e-07   1.3965962386947887e-07   1.0084128333988786e-07   1.1510269031531858e-07   8.0051029161043866e-08   9.3092711950029648e-08   6.1892953109201763e-08   7.3682514691073187e-08   4.6410652170565886e-08   5.6918686653446473e-08   3.3641302450201810e-08   4.2841465876172891e-08   2.3615569562565967e-08   3.1484643342839612e-08   1.6357534704390310e-08   2.2875481530721211e-08   1.1884636588020000e-08   1.7034648685369377e-08   1.0207629375420788e-08   1.3976168979252045e-08   1.1330556714361238e-08   1.3707388674413004e-08   1.5250741939620850e-08   1.6228958371479947e-08   2.1958794462568304e-08   2.1534831387492662e-08   3.1438632334012391e-08   2.9612278266448742e-08   4.3667520925708408e-08   4.0441917388050862e-08   5.8616127636980222e-08   5.3997761600103578e-08   7.6248592494603686e-08   7.0247280762526379e-08   9.6522614475455554e-08   8.9151480051861627e-08   1.1938955334349921e-07   1.1066499383717687e-07   1.4479454675525586e-07   1.3473619490084801e-07   1.7267664235059298e-07   1.6130731874023172e-07   2.0296894451110591e-07   1.9031460265122353e-07   2.3559877543063202e-07   2.2168843925624568e-07   2.7048785010911607e-07   2.5535354410743185e-07   3.0755246484792595e-07   2.9122913696015032e-07   3.4670369879136602e-07   3.2922913627813130e-07   3.8784762802697630e-07   3.6926236650236022e-07   4.3088555172953992e-07   4.1123277758225286e-07   4.7571422979931757e-07   4.5503967623764189e-07   5.2222613142552678e-07   5.0057796839811569e-07   5.7030969397039702e-07   5.4773841222737939e-07   6.1984959155083726e-07   5.9640788112742914e-07   6.7072701266991257e-07   6.4646963608520479e-07   7.2281994622472168e-07   6.9780360670294943e-07   7.7600347520335680e-07   7.5028668023625105e-07   8.3015007736004022e-07   8.0379299793977368e-07   8.8512993214091998e-07   8.5819425800576091e-07   9.4081123312257916e-07   9.1336002436295134e-07   9.9706050520500435e-07   9.6915804059110407e-07   1.0537429257958890e-06   1.0254545481927064e-06   1.1107226492070637e-06   1.0821146084520795e-06   1.1678631334839807e-06   1.1390024271047255e-06   1.2250274688729340e-06   1.1959816810342193e-06   1.2820787071377002e-06   1.2529158462048577e-06   1.3388801909257781e-06   1.3096685260379665e-06   1.3952958823908042e-06   1.3661037794409751e-06   1.4511906902755801e-06   1.4220864476924265e-06   1.5064307946647144e-06   1.4774824793963512e-06   1.5608839686233705e-06   1.5321592527166190e-06   1.6144198959413433e-06   1.5859858941166273e-06   1.6669104842173431e-06   1.6388335928278771e-06   1.7182301725217398e-06   1.6905759102910768e-06   1.7682562328963173e-06   1.7410890838178315e-06   1.8168690649587104e-06   1.7902523237369345e-06   1.8639524828968208e-06   1.8379481033079358e-06   1.9093939941587364e-06   1.8840624406945700e-06   1.9530850691576378e-06   1.9284851723145332e-06   1.9949214013370278e-06   1.9711102168999474e-06   2.0348031569605485e-06   2.0118358296229311e-06   2.0726352140121739e-06   2.0505648456629076e-06   2.1083273896188651e-06   2.0872049126157211e-06   2.1417946554288767e-06   2.1216687111644418e-06   2.1729573404000791e-06   2.1538741634567314e-06   2.2017413204773238e-06   2.1837446286500288e-06   2.2280781946487593e-06   2.2112090851045738e-06   2.2519054468851287e-06   2.2362022987095658e-06   2.2731665934566786e-06   2.2586649768251660e-06   2.2918113150947714e-06   2.2785439072905463e-06   2.3077955733813419e-06   2.2957920818683143e-06   2.3210817105734892e-06   2.3103688033220991e-06   2.3316385317032063e-06   2.3222397749703000e-06   2.3394413671843794e-06   2.3313771709807953e-06   2.3444721140775844e-06   2.3377596856638096e-06   2.3467192614057087e-06   2.3413725673889857e-06   2.3362317582420922e-06   2.3320790683650343e-06   2.3317625120681301e-06   2.3289888962269866e-06   2.3245413286965858e-06   2.3231530440094202e-06   2.3145849752835528e-06   2.3145849752835410e-06   2.3019166258130491e-06   2.3033045496794076e-06   2.2865658848119088e-06   2.2893380550369119e-06   2.2685687589607024e-06   2.2727181872439149e-06   2.2479675934276906e-06   2.2534839947089749e-06   2.2248109832518644e-06   2.2316807978225836e-06   2.1991536647458952e-06   2.2073600883719325e-06   2.1710563894246925e-06   2.1805794114004322e-06   2.1405857818834861e-06   2.1514022309209655e-06   2.1078141825733841e-06   2.1198977804092234e-06   2.0728194761950545e-06   2.0861408987839012e-06   2.03568490