<?xml version="1.0"?>
<VTKFile type="UnstructuredGrid"  version="0.1"  >
<UnstructuredGrid>
<Piece  NumberOfPoints="16641" NumberOfCells="32768">
<Points>
<DataArray  type="Float64"  NumberOfComponents="3"  format="ascii">0 0 0  0.0078125 0 0  0.015625 0 0  0.0234375 0 0  0.03125 0 0  0.0390625 0 0  0.046875 0 0  0.0546875 0 0  0.0625 0 0  0.0703125 0 0  0.078125 0 0  0.0859375 0 0  0.09375 0 0  0.1015625 0 0  0.109375 0 0  0.1171875 0 0  0.125 0 0  0.1328125 0 0  0.140625 0 0  0.1484375 0 0  0.15625 0 0  0.1640625 0 0  0.171875 0 0  0.1796875 0 0  0.1875 0 0  0.1953125 0 0  0.203125 0 0  0.2109375 0 0  0.21875 0 0  0.2265625 0 0  0.234375 0 0  0.2421875 0 0  0.25 0 0  0.2578125 0 0  0.265625 0 0  0.2734375 0 0  0.28125 0 0  0.2890625 0 0  0.296875 0 0  0.3046875 0 0  0.3125 0 0  0.3203125 0 0  0.328125 0 0  0.3359375 0 0  0.34375 0 0  0.3515625 0 0  0.359375 0 0  0.3671875 0 0  0.375 0 0  0.3828125 0 0  0.390625 0 0  0.3984375 0 0  0.40625 0 0  0.4140625 0 0  0.421875 0 0  0.4296875 0 0  0.4375 0 0  0.4453125 0 0  0.453125 0 0  0.4609375 0 0  0.46875 0 0  0.4765625 0 0  0.484375 0 0  0.4921875 0 0  0.5 0 0  0.5078125 0 0  0.515625 0 0  0.5234375 0 0  0.53125 0 0  0.5390625 0 0  0.546875 0 0  0.5546875 0 0  0.5625 0 0  0.5703125 0 0  0.578125 0 0  0.5859375 0 0  0.59375 0 0  0.6015625 0 0  0.609375 0 0  0.6171875 0 0  0.625 0 0  0.6328125 0 0  0.640625 0 0  0.6484375 0 0  0.65625 0 0  0.6640625 0 0  0.671875 0 0  0.6796875 0 0  0.6875 0 0  0.6953125 0 0  0.703125 0 0  0.7109375 0 0  0.71875 0 0  0.7265625 0 0  0.734375 0 0  0.7421875 0 0  0.75 0 0  0.7578125 0 0  0.765625 0 0  0.7734375 0 0  0.78125 0 0  0.7890625 0 0  0.796875 0 0  0.8046875 0 0  0.8125 0 0  0.8203125 0 0  0.828125 0 0  0.8359375 0 0  0.84375 0 0  0.8515625 0 0  0.859375 0 0  0.8671875 0 0  0.875 0 0  0.8828125 0 0  0.890625 0 0  0.8984375 0 0  0.90625 0 0  0.9140625 0 0  0.921875 0 0  0.9296875 0 0  0.9375 0 0  0.9453125 0 0  0.953125 0 0  0.9609375 0 0  0.96875 0 0  0.9765625 0 0  0.984375 0 0  0.9921875 0 0  1 0 0  0 0.0078125 0  0.0078125 0.0078125 0  0.015625 0.0078125 0  0.0234375 0.0078125 0  0.03125 0.0078125 0  0.0390625 0.0078125 0  0.046875 0.0078125 0  0.0546875 0.0078125 0  0.0625 0.0078125 0  0.0703125 0.0078125 0  0.078125 0.0078125 0  0.0859375 0.0078125 0  0.09375 0.0078125 0  0.1015625 0.0078125 0  0.109375 0.0078125 0  0.1171875 0.0078125 0  0.125 0.0078125 0  0.1328125 0.0078125 0  0.140625 0.0078125 0  0.1484375 0.0078125 0  0.15625 0.0078125 0  0.1640625 0.0078125 0  0.171875 0.0078125 0  0.1796875 0.0078125 0  0.1875 0.0078125 0  0.1953125 0.0078125 0  0.203125 0.0078125 0  0.2109375 0.0078125 0  0.21875 0.0078125 0  0.2265625 0.0078125 0  0.234375 0.0078125 0  0.2421875 0.0078125 0  0.25 0.0078125 0  0.2578125 0.0078125 0  0.265625 0.0078125 0  0.2734375 0.0078125 0  0.28125 0.0078125 0  0.2890625 0.0078125 0  0.296875 0.0078125 0  0.3046875 0.0078125 0  0.3125 0.0078125 0  0.3203125 0.0078125 0  0.328125 0.0078125 0  0.3359375 0.0078125 0  0.34375 0.0078125 0  0.3515625 0.0078125 0  0.359375 0.0078125 0  0.3671875 0.0078125 0  0.375 0.0078125 0  0.3828125 0.0078125 0  0.390625 0.0078125 0  0.3984375 0.0078125 0  0.40625 0.0078125 0  0.4140625 0.0078125 0  0.421875 0.0078125 0  0.4296875 0.0078125 0  0.4375 0.0078125 0  0.4453125 0.0078125 0  0.453125 0.0078125 0  0.4609375 0.0078125 0  0.46875 0.0078125 0  0.4765625 0.0078125 0  0.484375 0.0078125 0  0.4921875 0.0078125 0  0.5 0.0078125 0  0.5078125 0.0078125 0  0.515625 0.0078125 0  0.5234375 0.0078125 0  0.53125 0.0078125 0  0.5390625 0.0078125 0  0.546875 0.0078125 0  0.5546875 0.0078125 0  0.5625 0.0078125 0  0.5703125 0.0078125 0  0.578125 0.0078125 0  0.5859375 0.0078125 0  0.59375 0.0078125 0  0.6015625 0.0078125 0  0.609375 0.0078125 0  0.6171875 0.0078125 0  0.625 0.0078125 0  0.6328125 0.0078125 0  0.640625 0.0078125 0  0.6484375 0.0078125 0  0.65625 0.0078125 0  0.6640625 0.0078125 0  0.671875 0.0078125 0  0.6796875 0.0078125 0  0.6875 0.0078125 0  0.6953125 0.0078125 0  0.703125 0.0078125 0  0.7109375 0.0078125 0  0.71875 0.0078125 0  0.7265625 0.0078125 0  0.734375 0.0078125 0  0.7421875 0.0078125 0  0.75 0.0078125 0  0.7578125 0.0078125 0  0.765625 0.0078125 0  0.7734375 0.0078125 0  0.78125 0.0078125 0  0.7890625 0.0078125 0  0.796875 0.0078125 0  0.8046875 0.0078125 0  0.8125 0.0078125 0  0.8203125 0.0078125 0  0.828125 0.0078125 0  0.8359375 0.0078125 0  0.84375 0.0078125 0  0.8515625 0.0078125 0  0.859375 0.0078125 0  0.8671875 0.0078125 0  0.875 0.0078125 0  0.8828125 0.0078125 0  0.890625 0.0078125 0  0.8984375 0.0078125 0  0.90625 0.0078125 0  0.9140625 0.0078125 0  0.921875 0.0078125 0  0.9296875 0.0078125 0  0.9375 0.0078125 0  0.9453125 0.0078125 0  0.953125 0.0078125 0  0.9609375 0.0078125 0  0.96875 0.0078125 0  0.9765625 0.0078125 0  0.984375 0.0078125 0  0.9921875 0.0078125 0  1 0.0078125 0  0 0.015625 0  0.0078125 0.015625 0  0.015625 0.015625 0  0.0234375 0.015625 0  0.03125 0.015625 0  0.0390625 0.015625 0  0.046875 0.015625 0  0.0546875 0.015625 0  0.0625 0.015625 0  0.0703125 0.015625 0  0.078125 0.015625 0  0.0859375 0.015625 0  0.09375 0.015625 0  0.1015625 0.015625 0  0.109375 0.015625 0  0.1171875 0.015625 0  0.125 0.015625 0  0.1328125 0.015625 0  0.140625 0.015625 0  0.1484375 0.015625 0  0.15625 0.015625 0  0.1640625 0.015625 0  0.171875 0.015625 0  0.1796875 0.015625 0  0.1875 0.015625 0  0.1953125 0.015625 0  0.203125 0.015625 0  0.2109375 0.015625 0  0.21875 0.015625 0  0.2265625 0.015625 0  0.234375 0.015625 0  0.2421875 0.015625 0  0.25 0.015625 0  0.2578125 0.015625 0  0.265625 0.015625 0  0.2734375 0.015625 0  0.28125 0.015625 0  0.2890625 0.015625 0  0.296875 0.015625 0  0.3046875 0.015625 0  0.3125 0.015625 0  0.3203125 0.015625 0  0.328125 0.015625 0  0.3359375 0.015625 0  0.34375 0.015625 0  0.3515625 0.015625 0  0.359375 0.015625 0  0.3671875 0.015625 0  0.375 0.015625 0  0.3828125 0.015625 0  0.390625 0.015625 0  0.3984375 0.015625 0  0.40625 0.015625 0  0.4140625 0.015625 0  0.421875 0.015625 0  0.4296875 0.015625 0  0.4375 0.015625 0  0.4453125 0.015625 0  0.453125 0.015625 0  0.4609375 0.015625 0  0.46875 0.015625 0  0.4765625 0.015625 0  0.484375 0.015625 0  0.4921875 0.015625 0  0.5 0.015625 0  0.5078125 0.015625 0  0.515625 0.015625 0  0.5234375 0.015625 0  0.53125 0.015625 0  0.5390625 0.015625 0  0.546875 0.015625 0  0.5546875 0.015625 0  0.5625 0.015625 0  0.5703125 0.015625 0  0.578125 0.015625 0  0.5859375 0.015625 0  0.59375 0.015625 0  0.6015625 0.015625 0  0.609375 0.015625 0  0.6171875 0.015625 0  0.625 0.015625 0  0.6328125 0.015625 0  0.640625 0.015625 0  0.6484375 0.015625 0  0.65625 0.015625 0  0.6640625 0.015625 0  0.671875 0.015625 0  0.6796875 0.015625 0  0.6875 0.015625 0  0.6953125 0.015625 0  0.703125 0.015625 0  0.7109375 0.015625 0  0.71875 0.015625 0  0.7265625 0.015625 0  0.734375 0.015625 0  0.7421875 0.015625 0  0.75 0.015625 0  0.7578125 0.015625 0  0.765625 0.015625 0  0.7734375 0.015625 0  0.78125 0.015625 0  0.7890625 0.015625 0  0.796875 0.015625 0  0.8046875 0.015625 0  0.8125 0.015625 0  0.8203125 0.015625 0  0.828125 0.015625 0  0.8359375 0.015625 0  0.84375 0.015625 0  0.8515625 0.015625 0  0.859375 0.015625 0  0.8671875 0.015625 0  0.875 0.015625 0  0.8828125 0.015625 0  0.890625 0.015625 0  0.8984375 0.015625 0  0.90625 0.015625 0  0.9140625 0.015625 0  0.921875 0.015625 0  0.9296875 0.015625 0  0.9375 0.015625 0  0.9453125 0.015625 0  0.953125 0.015625 0  0.9609375 0.015625 0  0.96875 0.015625 0  0.9765625 0.015625 0  0.984375 0.015625 0  0.9921875 0.015625 0  1 0.015625 0  0 0.0234375 0  0.0078125 0.0234375 0  0.015625 0.0234375 0  0.0234375 0.0234375 0  0.03125 0.0234375 0  0.0390625 0.0234375 0  0.046875 0.0234375 0  0.0546875 0.0234375 0  0.0625 0.0234375 0  0.0703125 0.0234375 0  0.078125 0.0234375 0  0.0859375 0.0234375 0  0.09375 0.0234375 0  0.1015625 0.0234375 0  0.109375 0.0234375 0  0.1171875 0.0234375 0  0.125 0.0234375 0  0.1328125 0.0234375 0  0.140625 0.0234375 0  0.1484375 0.0234375 0  0.15625 0.0234375 0  0.1640625 0.0234375 0  0.171875 0.0234375 0  0.1796875 0.0234375 0  0.1875 0.0234375 0  0.1953125 0.0234375 0  0.203125 0.0234375 0  0.2109375 0.0234375 0  0.21875 0.0234375 0  0.2265625 0.0234375 0  0.234375 0.0234375 0  0.2421875 0.0234375 0  0.25 0.0234375 0  0.2578125 0.0234375 0  0.265625 0.0234375 0  0.2734375 0.0234375 0  0.28125 0.0234375 0  0.2890625 0.0234375 0  0.296875 0.0234375 0  0.3046875 0.0234375 0  0.3125 0.0234375 0  0.3203125 0.0234375 0  0.328125 0.0234375 0  0.3359375 0.0234375 0  0.34375 0.0234375 0  0.3515625 0.0234375 0  0.359375 0.0234375 0  0.3671875 0.0234375 0  0.375 0.0234375 0  0.3828125 0.0234375 0  0.390625 0.0234375 0  0.3984375 0.0234375 0  0.40625 0.0234375 0  0.4140625 0.0234375 0  0.421875 0.0234375 0  0.4296875 0.0234375 0  0.4375 0.0234375 0  0.4453125 0.0234375 0  0.453125 0.0234375 0  0.4609375 0.0234375 0  0.46875 0.0234375 0  0.4765625 0.0234375 0  0.484375 0.0234375 0  0.4921875 0.0234375 0  0.5 0.0234375 0  0.5078125 0.0234375 0  0.515625 0.0234375 0  0.5234375 0.0234375 0  0.53125 0.0234375 0  0.5390625 0.0234375 0  0.546875 0.0234375 0  0.5546875 0.0234375 0  0.5625 0.0234375 0  0.5703125 0.0234375 0  0.578125 0.0234375 0  0.5859375 0.0234375 0  0.59375 0.0234375 0  0.6015625 0.0234375 0  0.609375 0.0234375 0  0.6171875 0.0234375 0  0.625 0.0234375 0  0.6328125 0.0234375 0  0.640625 0.0234375 0  0.6484375 0.0234375 0  0.65625 0.0234375 0  0.6640625 0.0234375 0  0.671875 0.0234375 0  0.6796875 0.0234375 0  0.6875 0.0234375 0  0.6953125 0.0234375 0  0.703125 0.0234375 0  0.7109375 0.0234375 0  0.71875 0.0234375 0  0.7265625 0.0234375 0  0.734375 0.0234375 0  0.7421875 0.0234375 0  0.75 0.0234375 0  0.7578125 0.0234375 0  0.765625 0.0234375 0  0.7734375 0.0234375 0  0.78125 0.0234375 0  0.7890625 0.0234375 0  0.796875 0.0234375 0  0.8046875 0.0234375 0  0.8125 0.0234375 0  0.8203125 0.0234375 0  0.828125 0.0234375 0  0.8359375 0.0234375 0  0.84375 0.0234375 0  0.8515625 0.0234375 0  0.859375 0.0234375 0  0.8671
[...]
<CellData  Scalars="f_67445"> 
<DataArray  type="Float64"  Name="f_67445"  format="ascii">3.2280754109745660e-10   3.2280754109740294e-10   4.6752398724359726e-10   6.0074106873794143e-10   6.3226886404288124e-10   8.3701549337654179e-10   8.1749703208036743e-10   1.1029370437578821e-09   1.0230082547596310e-09   1.3981367175106055e-09   1.2483502591729017e-09   1.7219207229578652e-09   1.4929393725602926e-09   2.0734164828227535e-09   1.7561138684335206e-09   2.4516441079518883e-09   2.0371595665282195e-09   2.8555522806008863e-09   2.3353226880828273e-09   3.2840363427021939e-09   2.6498167093563682e-09   3.7359477424501788e-09   2.9798263402351322e-09   4.2100993386784587e-09   3.3245101108003477e-09   4.7052687373686132e-09   3.6830022893810165e-09   5.2202007197412485e-09   4.0544144954237449e-09   5.7536092861719300e-09   4.4378371940084918e-09   6.3041795790335729e-09   4.8323411693414889e-09   6.8705698166264967e-09   5.2369790276176109e-09   7.4514133030819884e-09   5.6507867544943919e-09   8.0453205436932878e-09   6.0727853383919770e-09   8.6508814765996390e-09   6.5019824630939261e-09   9.2666678209075917e-09   6.9373742686357081e-09   9.8912355366567567e-09   7.3779471768803909e-09   1.0523127388255690e-08   7.8226797767031600e-09   1.1160875602126101e-08   8.2705447630105813e-09   1.1803004608146033e-08   8.7205109230563845e-09   1.2448033854440450e-08   9.1715451636141231e-09   1.3094480684732394e-08   9.6226145721488742e-09   1.3740863267863310e-08   1.0072688505328827e-08   1.4385703568807120e-08   1.0520740698066211e-08   1.5027530351214019e-08   1.0965751386468715e-08   1.5664882201064473e-08   1.1406709437973203e-08   1.6296310561858820e-08   1.1842614482213959e-08   1.6920382771308296e-08   1.2272479036129538e-08   1.7535685090373854e-08   1.2695330616904933e-08   1.8140825714966006e-08   1.3110213836644240e-08   1.8734437761530296e-08   1.3516192472506886e-08   1.9315182217415864e-08   1.3912351506384005e-08   1.9881750847415831e-08   1.4297799128270205e-08   2.0432869047784487e-08   1.4671668697542136e-08   2.0967298640046309e-08   1.5033120656667336e-08   2.1483840595731524e-08   1.5381344391904067e-08   2.1981337685107718e-08   1.5715560035711566e-08   2.2458677041879952e-08   1.6035020205928242e-08   2.2914792636736944e-08   1.6339011676814608e-08   2.3348667652853853e-08   1.6626856977170577e-08   2.3759336756762921e-08   1.6897915911380683e-08   2.4145888257805708e-08   1.7151586998923283e-08   2.4507466150940105e-08   1.7387308828241450e-08   2.4843272036260160e-08   1.7604561321537535e-08   2.5152566910295189e-08   1.7802866906719449e-08   2.5434672824428123e-08   1.7981791593219976e-08   2.5688974405031234e-08   1.8140945948782657e-08   2.5914920231427207e-08   1.8279985974350573e-08   2.6112024067949963e-08   1.8398613874565274e-08   2.6279865945968170e-08   1.8496578721803161e-08   2.6418093093448975e-08   1.8573677011524602e-08   2.6526420708766065e-08   1.8629753107590412e-08   2.6604632576619026e-08   1.8664699575890470e-08   2.6652581524297982e-08   1.8678457405438898e-08   2.6670189716492952e-08   1.8671016115899552e-08   2.6657448787659493e-08   1.8642413751287088e-08   2.6614419811442982e-08   1.8592736759393699e-08   2.6541233106609113e-08   1.8522119757130363e-08   2.6438087879842351e-08   1.8430745182327941e-08   2.6305251705888896e-08   1.8318842832144066e-08   2.6143059846227929e-08   1.8186689289695898e-08   2.5951914407190826e-08   1.8034607239603829e-08   2.5732283340197624e-08   1.7862964674202893e-08   2.5484699285229312e-08   1.7672173992309580e-08   2.5209758261214271e-08   1.7462690992168178e-08   2.4908118205551793e-08   1.7235013761641702e-08   2.4580497366553139e-08   1.6989681467376114e-08   2.4227672552539991e-08   1.6727273046475519e-08   2.3850477241446694e-08   1.6448405803368554e-08   2.3449799555745576e-08   1.6153733915390562e-08   2.3026580107284019e-08   1.5843946850486243e-08   2.2581809717244609e-08   1.5519767700861273e-08   2.2116527016606948e-08   1.5181951436598773e-08   2.1631815932909636e-08   1.4831283083234893e-08   2.1128803069415882e-08   1.4468575827858119e-08   2.0608654982696009e-08   1.4094669058043312e-08   2.0072575365495508e-08   1.3710426338392301e-08   1.9521802141383776e-08   1.3316733329484203e-08   1.8957604478328832e-08   1.2914495654049690e-08   1.8381279728160662e-08   1.2504636715651432e-08   1.7794150299472011e-08   1.2088095474716031e-08   1.7197560471195334e-08   1.1665824187357411e-08   1.6592873154637889e-08   1.1238786112089419e-08   1.5981466611463326e-08   1.0807953189955389e-08   1.5364731135467007e-08   1.0374303702964002e-08   1.4744065706010960e-08   9.9388199167599276e-09   1.4120874620593250e-08   9.5024857121938886e-09   1.3496564114806602e-08   9.0662842114065141e-09   1.2872538977003122e-08   8.6311954033810419e-09   1.2250199165427978e-08   8.1981937739831884e-09   1.1630936435425472e-08   7.7682459453526415e-09   1.1016130983857745e-08   7.3423083292589577e-09   1.0407148117988082e-08   6.9213247987166397e-09   9.8053349555609591e-09   6.5062243820437387e-09   9.2120171624972347e-09   6.0979189827880424e-09   8.6284957343918989e-09   5.6973011289341141e-09   8.0560438270692426e-09   5.3052417536476385e-09   7.4959036413186233e-09   4.9225880095730223e-09   6.9492833656019011e-09   4.5501611174014360e-09   6.4173541800080695e-09   4.1887542483646645e-09   5.9012473232058163e-09   3.8391304388833666e-09   5.4020512226877113e-09   3.5020205333293486e-09   4.9208086867304274e-09   3.1781211487206086e-09   4.4585141537191962e-09   2.8680926511714666e-09   4.0161109914476936e-09   2.5725571297357670e-09   3.5944888341602818e-09   2.2920963463550721e-09   3.1944809393866464e-09   2.0272496316836668e-09   2.8168615377599386e-09   1.7785116831239298e-09   2.4623431373663859e-09   1.5463302018373547e-09   2.1315737264615387e-09   1.3311032753536535e-09   1.8251337926182918e-09   1.1331763657247089e-09   1.5435330368708318e-09   9.5283868674080803e-10   1.2872065990698783e-09   7.9031862549007483e-10   1.0565105098580419e-09   6.4577763678152673e-10   8.5171591423747444e-10   5.1930161750295249e-10   6.7300131283640273e-10   4.1088793293285990e-10   5.2044151605581183e-10   3.2042448161250322e-10   3.9399093276872407e-10   2.4765298334373825e-10   2.9345657258141367e-10   1.9209750814055768e-10   2.1845102809637112e-10   1.5290460828102025e-10   1.6830270383476764e-10   1.2840713155272442e-10   1.4186299243271450e-10   8.9687326277930615e-11   1.3702836626422756e-10   6.0074106873792943e-10   4.6752398724335779e-10   8.1975608322418447e-10   8.1975608322397261e-10   1.0714600824395226e-09   1.0687252679342720e-09   1.3538546098254346e-09   1.3497313656071796e-09   1.6656489163999930e-09   1.6607118806799758e-09   2.0057048844656098e-09   2.0002137109622748e-09   2.3729221074026721e-09   2.3669902592285774e-09   2.7661959257410725e-09   2.7598666647862783e-09   3.1844004849190160e-09   3.1776821069335590e-09   3.6263821969507992e-09   3.6192649175844247e-09   4.0909574524514686e-09   4.0834218765896006e-09   4.5769121328917852e-09   4.5689337252638245e-09   5.0830019832716607e-09   5.0745535550665176e-09   5.6079534774138223e-09   5.5990066436412102e-09   6.1504650216443469e-09   6.1409911010760998e-09   6.7092084234199218e-09   6.6991790242135611e-09   7.2828305831987147e-09   7.2722180042716357e-09   7.8699553812745129e-09   7.8587329015040132e-09   8.4691857376298284e-09   8.4573278338333657e-09   9.0791058258406248e-09   9.0665883438358448e-09   9.6982834245267782e-09   9.6850837173727241e-09   1.0325272390854270e-08   1.0311369433416349e-08   1.0958615242005880e-08   1.0943989727070234e-08   1.1596845831167335e-08   1.1581480250772499e-08   1.2238492105494239e-08   1.2222370819625890e-08   1.2882078933837515e-08   1.2865188228027705e-08   1.3526130992918358e-08   1.3508459125747936e-08   1.4169175700469202e-08   1.4150712941684281e-08   1.4809746184984452e-08   1.4790484844700034e-08   1.5446384281258913e-08   1.5426318730770390e-08   1.6077643541822944e-08   1.6056770226164913e-08   1.6702092254148020e-08   1.6680409696910690e-08   1.7318316454181960e-08   1.7295825254611981e-08   1.7924922926530045e-08   1.7901625749424520e-08   1.8520542182256593e-08   1.8496443740598944e-08   1.9103831405337243e-08   1.9078938436221573e-08   1.9673477358752249e-08   1.9647798592588191e-08   2.0228199241830452e-08   2.0201745365388705e-08   2.0766751490724084e-08   2.0739535103761188e-08   2.1287926513387097e-08   2.1259962079984018e-08   2.1790557351814613e-08   2.1761861145648624e-08   2.2273520263622763e-08   2.2244110308404308e-08   2.2735737215616050e-08   2.2705633220436781e-08   2.3176178282548789e-08   2.3145401572608280e-08   2.3593863944198392e-08   2.3562437387194228e-08   2.3987867274069226e-08   2.3955815202727579e-08   2.4357316014274900e-08   2.4324664144970030e-08   2.4701394529900550e-08   2.4668169878072394e-08   2.5019345637826190e-08   2.4985576430392906e-08   2.5310472305219767e-08   2.5276187890099250e-08   2.5574139212178378e-08   2.5539369965684227e-08   2.5809774174489149e-08   2.5774551406482922e-08   2.6016869422738850e-08   2.5981225280137494e-08   2.6194982733406136e-08   2.6158950102453823e-08   2.6343738409418341e-08   2.6307350816694104e-08   2.6462828106794452e-08   2.6426119619661388e-08   2.6552011504978543e-08   2.6515016631671427e-08   2.6611116819111866e-08   2.6573870408597721e-08   2.6640041152120171e-08   2.6602578294501436e-08   2.6638750685627283e-08   2.6601106612852142e-08   2.6607280708945055e-08   2.6569490696564117e-08   2.6545735485509931e-08   2.6507834755705294e-08   2.6454287956868473e-08   2.6416311582829117e-08   2.6333179284659195e-08   2.6295162096931073e-08   2.6182718231493998e-08   2.6144694726251173e-08   2.6003280381571023e-08   2.5965284631566896e-08   2.5795307203529837e-08   2.5757372771314577e-08   2.5559304956436251e-08   2.5521464810960997e-08   2.5295843442519648e-08   2.5258129878427610e-08   2.5005554608608855e-08   2.4967999169479155e-08   2.4689131000051675e-08   2.4651764404969197e-08   2.4347324070492736e-08   2.4310176144731554e-08   2.3980942351387955e-08   2.3944041961182187e-08   2.3590849485819093e-08   2.3554224477595165e-08   2.3177962131117529e-08   2.3141639275220192e-08   2.2743247735262731e-08   2.2707252674533417e-08   2.2287722192436507e-08   2.2252079395769397e-08   2.1812447383263169e-08   2.1777180104383687e-08   2.1318528605781734e-08   2.1283658847311658e-08   2.0807111903013306e-08   2.0772660386273329e-08   2.0279381293886728e-08   2.0245367434150947e-08   1.9736555913875623e-08   1.9702997801728626e-08   1.9179887072436224e-08   1.9146801461113942e-08   1.8610655233984838e-08   1.8578057533080461e-08   1.8030166930084643e-08   1.7998071205388827e-08   1.7439751609727124e-08   1.7408170589995083e-08   1.6840758435662285e-08   1.6809703525838521e-08   1.6234553033992745e-08   1.6204034335646879e-08   1.5622514204954082e-08   1.5592540543793407e-08   1.5006030602692131e-08   1.4976609563410364e-08   1.4386497391285305e-08   1.4357635360345026e-08   1.3765312885555610e-08   1.3737015101636073e-08   1.3143875183687883e-08   1.3116145796679083e-08   1.2523578799570486e-08   1.2496420938214055e-08   1.1905811302430674e-08   1.1879227151101348e-08   1.1291949970939828e-08   1.1265940856225815e-08   1.0683358469095492e-08   1.0657924956806347e-08   1.0081383550700708e-08   1.0056525553987401e-08   9.4873517989523101e-09   9.4630686987518379e-09   8.9025664074836299e-09   8.8788571861746228e-09   8.3283040082420585e-09   8.3051673983007685e-09   7.7658115516779691e-09   7.7432462007606481e-09   7.2163032431837040e-09   7.1943078982299355e-09   6.6809575395833031e-09   6.6595312524281126e-09   6.1609142078350081e-09   6.1400565660694274e-09   5.6572714469481042e-09   5.6369828343625523e-09   5.1710830723746735e-09   5.1513649647149655e-09   4.7033557596931366e-09   4.6842110632256173e-09   4.2550463417909212e-09   4.2364797841802963e-09   3.8270591494622879e-09   3.8090777359601141e-09   3.4202433805728552e-09   3.4028569324513491e-09   3.0353904754044644e-09   3.0186122741433350e-09   2.6732314662917535e-09   2.6570790355998582e-09   2.3344342551331606e-09   2.3189303262896636e-09   2.0196007523047971e-09   2.0047744778430248e-09   1.7292637798498450e-09   1.7151522912667894e-09   1.4638835957164506e-09   1.4505340490329742e-09   1.2238438239340284e-09   1.2113161555983839e-09   1.0094464604230729e-09   9.9781720810083504e-10   8.2090543542176796e-10   8.1027320738280754e-10   6.5833789577973069e-10   6.4883148388349479e-10   5.2175182393165089e-10   5.1354271932353364e-10   4.1102765605172564e-10   4.0435019753014945e-10   3.2588990149819094e-10   3.2107522807646199e-10   2.6586209066331298e-10   2.6339821021449789e-10   2.3019613704709106e-10   2.3083961900998973e-10   2.1779118975998365e-10   2.2277645084857591e-10   1.8217766436634612e-10   2.3875860374966274e-10   8.3701549337609025e-10   6.3226886404218848e-10   1.0687252679342079e-09   1.0714600824388685e-09   1.3348635892035005e-09   1.3348635892030604e-09   1.6322797027586845e-09   1.6305296444744728e-09   1.9590754282853538e-09   1.9561045519682292e-09   2.3137785139283887e-09   2.3098948325283536e-09   2.6950861410063742e-09   2.6904724983962152e-09   3.1017642263358851e-09   3.0965269877887265e-09   3.5326010158022718e-09   3.5267989328049515e-09   3.9863835163077780e-09   3.9800455258128439e-09   4.4618852132143421e-09   4.4550214397132533e-09   4.9578597485058045e-09   4.9504683547661180e-09   5.4730378769049908e-09   5.4651094016977466e-09   6.0061263089987059e-09   5.9976464771181295e-09   6.5558077020426440e-09   6.5467592925535216e-09   7.1207413914991360e-09   7.1111055140307257e-09   7.6995646301284272e-09   7.6893216208077252e-09   8.2908941942945372e-09   8.2800242614562503e-09   8.8933282690335750e-09   8.8818119702124264e-09   9.5054485522149412e-09   9.4932671546793402e-09   1.0125822536688222e-08   1.0112958295223456e-08   1.0753005938716454e-08   1.0739442313412889e-08   1.1385545248891930e-08   1.1371267077818267e-08   1.2021980385407259e-08   1.2006974022781899e-08   1.2660847432801099e-08   1.2645100859827008e-08   1.3300681451315885e-08   1.3284184364776230e-08   1.3940019343286774e-08   1.3922763225773901e-08   1.4577402764352292e-08   1.4559380938606325e-08   1.5211381067762095e-08   1.5192588737382008e-08   1.5840514270664693e-08   1.5820948548644373e-08   1.6463376032200474e-08   1.6443035958506114e-08   1.7078556632825440e-08   1.7057443181991687e-08   1.7684665945572851e-08   1.7662782025118968e-08   1.8280336389244558e-08   1.8257686829654342e-08   1.8864225855024328e-08   1.8840817391614517e-08   1.9435020596791040e-08   1.9410861844375560e-08   1.9991438077216696e-08   1.9966539497695574e-08   2.0532229760427562e-08   2.0506603623971779e-08   2.1056183844135829e-08   2.1029844183913766e-08   2.1562127921776804e-08   2.1535090483566530e-08   2.2048931568778222e-08   2.2021213754523583e-08   2.2515508844006495e-08   2.2487129650933825e-08   2.2960820700185170e-08   2.2931800654974519e-08   2.3383877296201721e-08   2.3354238384951376e-08   2.3783740204729521e-08   2.3753505799029069e-08   2.4159524508952964e-08   2.4128719288265006e-08   2.4510400782612287e-08   2.4479050653512415e-08   2.4835596947443199e-08   2.4803728959827978e-08   2.5134400003339342e-08   2.5102042264205106e-08   2.5406157625950323e-08   2.5373339210756472e-08   2.5650279626960871e-08   2.5617030489286107e-08   2.5866239273720531e-08   2.5832590153287032e-08   2.6053574463581648e-08   2.6019556792954600e-08   2.6211888749883328e-08   2.6177534560433210e-08   2.6340852216826789e-08   2.6306194043990097e-08   2.6440202200085629e-08   2.6405272988355436e-08   2.6509743851415480e-08   2.6474576859578479e-08   2.6549350545379396e-08   2.6513979251789148e-08   2.6558964126271412e-08   2.6523422135250883e-08   2.6538594995149129e-08   2.6502915943968554e-08   2.6488322035811026e-08   2.6452539503163184e-08   2.6408292379406691e-08   2.6372439795490811e-08   2.6298721008617677e-08   2.6262831566910950e-08   2.6159890201396035e-08   2.6123996772740119e-08   2.5992148815823925e-08   2.5956283864762986e-08   2.5795911417208860e-08   2.5760106921160024e-08   2.5571657249690740e-08   2.5535944620799152e-08   2.5319929054045769e-08   2.5284339064612612e-08   2.5041331735409968e-08   2.5005894446183401e-08   2.4736530882607931e-08   2.4701275575331051e-08   2.4406251143799494e-08   2.4371206257050101e-08   2.4051274461342225e-08   2.4016467530902260e-08   2.3672438170602738e-08   2.3637895773790332e-08   2.3270632966816785e-08   2.3236380671518958e-08   2.2846800745096005e-08   2.2812863063365396e-08   2.2401932318611340e-08   2.2368332665147305e-08   2.1937065020398119e-08   2.1903825676083616e-08   2.1453280194629090e-08   2.1420422275307024e-08   2.0951700583316004e-08   2.0919244013795733e-08   2.0433487614482257e-08   2.0401451108311824e-08   1.9899838598849704e-08   1.9868239643579954e-08   1.9351983841341417e-08   1.9320838689767383e-08   1.8791183674441079e-08   1.8760507341857720e-08   1.8218725420461998e-08   1.8188531688106939e-08   1.7635920290403242e-08   1.7606221715024460e-08   1.7044100226088551e-08   1.7014908156533486e-08   1.6444614693968140e-08   1.6415939293954069e-08   1.5838827437425259e-08   1.5810677715627930e-08   1.5228113195804069e-08   1.5200497042909478e-08   1.4613854397730935e-08   1.4586778630891014e-08   1.3997437836319588e-08   1.3970908251467120e-08   1.3380251334277564e-08   1.3354272766273528e-08   1.2763680406310817e-08   1.2738256797665943e-08   1.2149104926487498e-08   1.2124239404979452e-08   1.1537895808168075e-08   1.1513590773838110e-08   1.0931411703608102e-08   1.0907668925885295e-08   1.0330995730297570e-08   1.0307816456114976e-08   9.7379722311798638e-09   9.7153573047415740e-09   9.1536435746920048e-09   9.1315935704862204e-09   8.5792870013653418e-09   8.5578023713793319e-09   8.0161515220438281e-09   7.9952327593330594e-09   7.4654548731943177e-09   7.4451026936112353e-09   6.9283805334002840e-09   6.9085960784360329e-09   6.4060748047915341e-09   6.3868598685855468e-09   5.8996439615989777e-09   5.8810012465702844e-09   5.4101514673944978e-09   5.3920848735423106e-09   4.9386152603480768e-09   4.9211302151891214e-09   4.4860051043032529e-09   4.4691089420477993e-09   4.0532400006848563e-09   4.0369424019878927e-09   3.6411856530657665e-09   3.6254991602912407e-09   3.2506519718662055e-09   3.2355925995213300e-09   2.8823906010296626e-09   2.8679785680408346e-09   2.5370924408404371e-09   2.5233530607552957e-09   2.2153851307839966e-09   2.2023499099742232e-09   1.9178304420706350e-09   1.9055384559254859e-09   1.6449215100247503e-09   1.6334211569723565e-09   1.3970798093174754e-09   1.3864310869748744e-09   1.1746517377741639e-09   1.1649292533433979e-09   9.7790462401633370e-10   9.6920165521075337e-10   8.0702190920990003e-10   7.9945599354294843e-10   6.6209717863677127e-10   6.5581796035487230e-10   5.4312665983187365e-10   5.3832711642189846e-10   4.4999984894121378e-10   4.4693263671412071e-10   3.8248839571040207e-10   3.8149003537571168e-10   3.4023570550267301e-10   3.4176273212546533e-10   3.2276192280726659e-10   3.2744257964032349e-10   3.2956858150572655e-10   3.3824541380919057e-10   2.8558825915338653e-10   3.7429899569034220e-10   1.1029370437568272e-09   8.1749703207902544e-10   1.3497313656062111e-09   1.3538546098242790e-09   1.6305296444741862e-09   1.6322797027582066e-09   1.9423329141670834e-09   1.9423329141673407e-09   2.2831121438773330e-09   2.2817721214551629e-09   2.6512656707023359e-09   2.6488520197267755e-09   3.0453838650785874e-09   3.0420739103915090e-09   3.4641470092220970e-09   3.4600591472211123e-09   3.9062756549536122e-09   3.9014874361363218e-09   4.3705037593780888e-09   4.3650639937352387e-09   4.8555632614979151e-09   4.8495005396720876e-09   5.3601751323943442e-09   5.3535038739543649e-09   5.8830443344084302e-09   5.8757690776977399e-09   6.4228572284084616e-09   6.4149756804652236e-09   6.97828056