<?xml version="1.0"?>
<VTKFile type="UnstructuredGrid"  version="0.1"  >
<UnstructuredGrid>
<Piece  NumberOfPoints="16641" NumberOfCells="32768">
<Points>
<DataArray  type="Float64"  NumberOfComponents="3"  format="ascii">0 0 0  0.0078125 0 0  0.015625 0 0  0.0234375 0 0  0.03125 0 0  0.0390625 0 0  0.046875 0 0  0.0546875 0 0  0.0625 0 0  0.0703125 0 0  0.078125 0 0  0.0859375 0 0  0.09375 0 0  0.1015625 0 0  0.109375 0 0  0.1171875 0 0  0.125 0 0  0.1328125 0 0  0.140625 0 0  0.1484375 0 0  0.15625 0 0  0.1640625 0 0  0.171875 0 0  0.1796875 0 0  0.1875 0 0  0.1953125 0 0  0.203125 0 0  0.2109375 0 0  0.21875 0 0  0.2265625 0 0  0.234375 0 0  0.2421875 0 0  0.25 0 0  0.2578125 0 0  0.265625 0 0  0.2734375 0 0  0.28125 0 0  0.2890625 0 0  0.296875 0 0  0.3046875 0 0  0.3125 0 0  0.3203125 0 0  0.328125 0 0  0.3359375 0 0  0.34375 0 0  0.3515625 0 0  0.359375 0 0  0.3671875 0 0  0.375 0 0  0.3828125 0 0  0.390625 0 0  0.3984375 0 0  0.40625 0 0  0.4140625 0 0  0.421875 0 0  0.4296875 0 0  0.4375 0 0  0.4453125 0 0  0.453125 0 0  0.4609375 0 0  0.46875 0 0  0.4765625 0 0  0.484375 0 0  0.4921875 0 0  0.5 0 0  0.5078125 0 0  0.515625 0 0  0.5234375 0 0  0.53125 0 0  0.5390625 0 0  0.546875 0 0  0.5546875 0 0  0.5625 0 0  0.5703125 0 0  0.578125 0 0  0.5859375 0 0  0.59375 0 0  0.6015625 0 0  0.609375 0 0  0.6171875 0 0  0.625 0 0  0.6328125 0 0  0.640625 0 0  0.6484375 0 0  0.65625 0 0  0.6640625 0 0  0.671875 0 0  0.6796875 0 0  0.6875 0 0  0.6953125 0 0  0.703125 0 0  0.7109375 0 0  0.71875 0 0  0.7265625 0 0  0.734375 0 0  0.7421875 0 0  0.75 0 0  0.7578125 0 0  0.765625 0 0  0.7734375 0 0  0.78125 0 0  0.7890625 0 0  0.796875 0 0  0.8046875 0 0  0.8125 0 0  0.8203125 0 0  0.828125 0 0  0.8359375 0 0  0.84375 0 0  0.8515625 0 0  0.859375 0 0  0.8671875 0 0  0.875 0 0  0.8828125 0 0  0.890625 0 0  0.8984375 0 0  0.90625 0 0  0.9140625 0 0  0.921875 0 0  0.9296875 0 0  0.9375 0 0  0.9453125 0 0  0.953125 0 0  0.9609375 0 0  0.96875 0 0  0.9765625 0 0  0.984375 0 0  0.9921875 0 0  1 0 0  0 0.0078125 0  0.0078125 0.0078125 0  0.015625 0.0078125 0  0.0234375 0.0078125 0  0.03125 0.0078125 0  0.0390625 0.0078125 0  0.046875 0.0078125 0  0.0546875 0.0078125 0  0.0625 0.0078125 0  0.0703125 0.0078125 0  0.078125 0.0078125 0  0.0859375 0.0078125 0  0.09375 0.0078125 0  0.1015625 0.0078125 0  0.109375 0.0078125 0  0.1171875 0.0078125 0  0.125 0.0078125 0  0.1328125 0.0078125 0  0.140625 0.0078125 0  0.1484375 0.0078125 0  0.15625 0.0078125 0  0.1640625 0.0078125 0  0.171875 0.0078125 0  0.1796875 0.0078125 0  0.1875 0.0078125 0  0.1953125 0.0078125 0  0.203125 0.0078125 0  0.2109375 0.0078125 0  0.21875 0.0078125 0  0.2265625 0.0078125 0  0.234375 0.0078125 0  0.2421875 0.0078125 0  0.25 0.0078125 0  0.2578125 0.0078125 0  0.265625 0.0078125 0  0.2734375 0.0078125 0  0.28125 0.0078125 0  0.2890625 0.0078125 0  0.296875 0.0078125 0  0.3046875 0.0078125 0  0.3125 0.0078125 0  0.3203125 0.0078125 0  0.328125 0.0078125 0  0.3359375 0.0078125 0  0.34375 0.0078125 0  0.3515625 0.0078125 0  0.359375 0.0078125 0  0.3671875 0.0078125 0  0.375 0.0078125 0  0.3828125 0.0078125 0  0.390625 0.0078125 0  0.3984375 0.0078125 0  0.40625 0.0078125 0  0.4140625 0.0078125 0  0.421875 0.0078125 0  0.4296875 0.0078125 0  0.4375 0.0078125 0  0.4453125 0.0078125 0  0.453125 0.0078125 0  0.4609375 0.0078125 0  0.46875 0.0078125 0  0.4765625 0.0078125 0  0.484375 0.0078125 0  0.4921875 0.0078125 0  0.5 0.0078125 0  0.5078125 0.0078125 0  0.515625 0.0078125 0  0.5234375 0.0078125 0  0.53125 0.0078125 0  0.5390625 0.0078125 0  0.546875 0.0078125 0  0.5546875 0.0078125 0  0.5625 0.0078125 0  0.5703125 0.0078125 0  0.578125 0.0078125 0  0.5859375 0.0078125 0  0.59375 0.0078125 0  0.6015625 0.0078125 0  0.609375 0.0078125 0  0.6171875 0.0078125 0  0.625 0.0078125 0  0.6328125 0.0078125 0  0.640625 0.0078125 0  0.6484375 0.0078125 0  0.65625 0.0078125 0  0.6640625 0.0078125 0  0.671875 0.0078125 0  0.6796875 0.0078125 0  0.6875 0.0078125 0  0.6953125 0.0078125 0  0.703125 0.0078125 0  0.7109375 0.0078125 0  0.71875 0.0078125 0  0.7265625 0.0078125 0  0.734375 0.0078125 0  0.7421875 0.0078125 0  0.75 0.0078125 0  0.7578125 0.0078125 0  0.765625 0.0078125 0  0.7734375 0.0078125 0  0.78125 0.0078125 0  0.7890625 0.0078125 0  0.796875 0.0078125 0  0.8046875 0.0078125 0  0.8125 0.0078125 0  0.8203125 0.0078125 0  0.828125 0.0078125 0  0.8359375 0.0078125 0  0.84375 0.0078125 0  0.8515625 0.0078125 0  0.859375 0.0078125 0  0.8671875 0.0078125 0  0.875 0.0078125 0  0.8828125 0.0078125 0  0.890625 0.0078125 0  0.8984375 0.0078125 0  0.90625 0.0078125 0  0.9140625 0.0078125 0  0.921875 0.0078125 0  0.9296875 0.0078125 0  0.9375 0.0078125 0  0.9453125 0.0078125 0  0.953125 0.0078125 0  0.9609375 0.0078125 0  0.96875 0.0078125 0  0.9765625 0.0078125 0  0.984375 0.0078125 0  0.9921875 0.0078125 0  1 0.0078125 0  0 0.015625 0  0.0078125 0.015625 0  0.015625 0.015625 0  0.0234375 0.015625 0  0.03125 0.015625 0  0.0390625 0.015625 0  0.046875 0.015625 0  0.0546875 0.015625 0  0.0625 0.015625 0  0.0703125 0.015625 0  0.078125 0.015625 0  0.0859375 0.015625 0  0.09375 0.015625 0  0.1015625 0.015625 0  0.109375 0.015625 0  0.1171875 0.015625 0  0.125 0.015625 0  0.1328125 0.015625 0  0.140625 0.015625 0  0.1484375 0.015625 0  0.15625 0.015625 0  0.1640625 0.015625 0  0.171875 0.015625 0  0.1796875 0.015625 0  0.1875 0.015625 0  0.1953125 0.015625 0  0.203125 0.015625 0  0.2109375 0.015625 0  0.21875 0.015625 0  0.2265625 0.015625 0  0.234375 0.015625 0  0.2421875 0.015625 0  0.25 0.015625 0  0.2578125 0.015625 0  0.265625 0.015625 0  0.2734375 0.015625 0  0.28125 0.015625 0  0.2890625 0.015625 0  0.296875 0.015625 0  0.3046875 0.015625 0  0.3125 0.015625 0  0.3203125 0.015625 0  0.328125 0.015625 0  0.3359375 0.015625 0  0.34375 0.015625 0  0.3515625 0.015625 0  0.359375 0.015625 0  0.3671875 0.015625 0  0.375 0.015625 0  0.3828125 0.015625 0  0.390625 0.015625 0  0.3984375 0.015625 0  0.40625 0.015625 0  0.4140625 0.015625 0  0.421875 0.015625 0  0.4296875 0.015625 0  0.4375 0.015625 0  0.4453125 0.015625 0  0.453125 0.015625 0  0.4609375 0.015625 0  0.46875 0.015625 0  0.4765625 0.015625 0  0.484375 0.015625 0  0.4921875 0.015625 0  0.5 0.015625 0  0.5078125 0.015625 0  0.515625 0.015625 0  0.5234375 0.015625 0  0.53125 0.015625 0  0.5390625 0.015625 0  0.546875 0.015625 0  0.5546875 0.015625 0  0.5625 0.015625 0  0.5703125 0.015625 0  0.578125 0.015625 0  0.5859375 0.015625 0  0.59375 0.015625 0  0.6015625 0.015625 0  0.609375 0.015625 0  0.6171875 0.015625 0  0.625 0.015625 0  0.6328125 0.015625 0  0.640625 0.015625 0  0.6484375 0.015625 0  0.65625 0.015625 0  0.6640625 0.015625 0  0.671875 0.015625 0  0.6796875 0.015625 0  0.6875 0.015625 0  0.6953125 0.015625 0  0.703125 0.015625 0  0.7109375 0.015625 0  0.71875 0.015625 0  0.7265625 0.015625 0  0.734375 0.015625 0  0.7421875 0.015625 0  0.75 0.015625 0  0.7578125 0.015625 0  0.765625 0.015625 0  0.7734375 0.015625 0  0.78125 0.015625 0  0.7890625 0.015625 0  0.796875 0.015625 0  0.8046875 0.015625 0  0.8125 0.015625 0  0.8203125 0.015625 0  0.828125 0.015625 0  0.8359375 0.015625 0  0.84375 0.015625 0  0.8515625 0.015625 0  0.859375 0.015625 0  0.8671875 0.015625 0  0.875 0.015625 0  0.8828125 0.015625 0  0.890625 0.015625 0  0.8984375 0.015625 0  0.90625 0.015625 0  0.9140625 0.015625 0  0.921875 0.015625 0  0.9296875 0.015625 0  0.9375 0.015625 0  0.9453125 0.015625 0  0.953125 0.015625 0  0.9609375 0.015625 0  0.96875 0.015625 0  0.9765625 0.015625 0  0.984375 0.015625 0  0.9921875 0.015625 0  1 0.015625 0  0 0.0234375 0  0.0078125 0.0234375 0  0.015625 0.0234375 0  0.0234375 0.0234375 0  0.03125 0.0234375 0  0.0390625 0.0234375 0  0.046875 0.0234375 0  0.0546875 0.0234375 0  0.0625 0.0234375 0  0.0703125 0.0234375 0  0.078125 0.0234375 0  0.0859375 0.0234375 0  0.09375 0.0234375 0  0.1015625 0.0234375 0  0.109375 0.0234375 0  0.1171875 0.0234375 0  0.125 0.0234375 0  0.1328125 0.0234375 0  0.140625 0.0234375 0  0.1484375 0.0234375 0  0.15625 0.0234375 0  0.1640625 0.0234375 0  0.171875 0.0234375 0  0.1796875 0.0234375 0  0.1875 0.0234375 0  0.1953125 0.0234375 0  0.203125 0.0234375 0  0.2109375 0.0234375 0  0.21875 0.0234375 0  0.2265625 0.0234375 0  0.234375 0.0234375 0  0.2421875 0.0234375 0  0.25 0.0234375 0  0.2578125 0.0234375 0  0.265625 0.0234375 0  0.2734375 0.0234375 0  0.28125 0.0234375 0  0.2890625 0.0234375 0  0.296875 0.0234375 0  0.3046875 0.0234375 0  0.3125 0.0234375 0  0.3203125 0.0234375 0  0.328125 0.0234375 0  0.3359375 0.0234375 0  0.34375 0.0234375 0  0.3515625 0.0234375 0  0.359375 0.0234375 0  0.3671875 0.0234375 0  0.375 0.0234375 0  0.3828125 0.0234375 0  0.390625 0.0234375 0  0.3984375 0.0234375 0  0.40625 0.0234375 0  0.4140625 0.0234375 0  0.421875 0.0234375 0  0.4296875 0.0234375 0  0.4375 0.0234375 0  0.4453125 0.0234375 0  0.453125 0.0234375 0  0.4609375 0.0234375 0  0.46875 0.0234375 0  0.4765625 0.0234375 0  0.484375 0.0234375 0  0.4921875 0.0234375 0  0.5 0.0234375 0  0.5078125 0.0234375 0  0.515625 0.0234375 0  0.5234375 0.0234375 0  0.53125 0.0234375 0  0.5390625 0.0234375 0  0.546875 0.0234375 0  0.5546875 0.0234375 0  0.5625 0.0234375 0  0.5703125 0.0234375 0  0.578125 0.0234375 0  0.5859375 0.0234375 0  0.59375 0.0234375 0  0.6015625 0.0234375 0  0.609375 0.0234375 0  0.6171875 0.0234375 0  0.625 0.0234375 0  0.6328125 0.0234375 0  0.640625 0.0234375 0  0.6484375 0.0234375 0  0.65625 0.0234375 0  0.6640625 0.0234375 0  0.671875 0.0234375 0  0.6796875 0.0234375 0  0.6875 0.0234375 0  0.6953125 0.0234375 0  0.703125 0.0234375 0  0.7109375 0.0234375 0  0.71875 0.0234375 0  0.7265625 0.0234375 0  0.734375 0.0234375 0  0.7421875 0.0234375 0  0.75 0.0234375 0  0.7578125 0.0234375 0  0.765625 0.0234375 0  0.7734375 0.0234375 0  0.78125 0.0234375 0  0.7890625 0.0234375 0  0.796875 0.0234375 0  0.8046875 0.0234375 0  0.8125 0.0234375 0  0.8203125 0.0234375 0  0.828125 0.0234375 0  0.8359375 0.0234375 0  0.84375 0.0234375 0  0.8515625 0.0234375 0  0.859375 0.0234375 0  0.8671
[...]
<CellData  Scalars="f_67427"> 
<DataArray  type="Float64"  Name="f_67427"  format="ascii">1.9431030721811190e-11   1.9431030721834668e-11   2.7681591533783241e-12   5.2564547257552363e-12   2.2571673237034992e-12   2.5651200456390746e-12   2.3242637166305455e-12   2.3690522772788260e-12   2.4142414544517092e-12   2.4153157651024591e-12   2.4859004907971916e-12   2.4871475233841040e-12   2.5409078195556352e-12   2.5499781838112020e-12   2.5832617921266472e-12   2.6001454788643917e-12   2.6158730264815709e-12   2.6392169754624537e-12   2.6406680156724190e-12   2.6691242055646284e-12   2.6589211615998256e-12   2.6913885279990551e-12   2.6714938420790382e-12   2.7071145963948605e-12   2.6789851626184966e-12   2.7170954156801019e-12   2.6818252834680598e-12   2.7219068381467485e-12   2.6803338122182637e-12   2.7219761561624668e-12   2.6747570544454905e-12   2.7176292571387003e-12   2.6652922909107710e-12   2.7091226581473037e-12   2.6521039408454337e-12   2.6966653461858441e-12   2.6353345280479077e-12   2.6804338048635234e-12   2.6151122556275753e-12   2.6605824799814111e-12   2.5915563175325606e-12   2.6372511412150904e-12   2.5647806629099806e-12   2.6105701246977910e-12   2.5348966925676147e-12   2.5806640941377823e-12   2.5020152013911606e-12   2.5476547585904713e-12   2.4662477750712105e-12   2.5116628400775072e-12   2.4277077855420501e-12   2.4728094946386866e-12   2.3865111049198606e-12   2.4312173432077844e-12   2.3427765805278549e-12   2.3870111875460647e-12   2.2966263558527322e-12   2.3403185103041289e-12   2.2481860476464915e-12   2.2912697965319294e-12   2.1975848308655264e-12   2.2399987214008469e-12   2.1449554333526581e-12   2.1866422313782028e-12   2.0904340696083705e-12   2.1313405368728929e-12   2.0341603157212389e-12   2.0742370454801940e-12   1.9762769462056644e-12   2.0154782309392731e-12   1.9169297339969501e-12   1.9552134604643013e-12   1.8562672089144052e-12   1.8935947876385953e-12   1.7944404095826531e-12   1.8307767097776453e-12   1.7316025963521912e-12   1.7669159025049381e-12   1.6679089570360024e-12   1.7021709307064910e-12   1.6035162947308953e-12   1.6367019416871089e-12   1.5385826968653484e-12   1.5706703480508584e-12   1.4732672092909678e-12   1.5042384920500035e-12   1.4077294833436860e-12   1.4375693022924934e-12   1.3421294298453251e-12   1.3708259446276819e-12   1.2766268640285649e-12   1.3041714654365646e-12   1.2113811439778261e-12   1.2377684310480223e-12   1.1465508116897445e-12   1.1717785606991576e-12   1.0822932324977229e-12   1.1063623669660268e-12   1.0187642311253942e-12   1.0416787881662992e-12   9.5611773514543652e-13   9.7788482301850058e-13   8.9450541873124614e-13   9.1513517569894471e-13   8.3407634859194031e-13   8.5358189367061335e-13   7.7497663811182070e-13   7.9337401496348389e-13   7.1734910417533425e-13   7.3465722659053073e-13   6.6133293808342572e-13   6.7757352119331232e-13   6.0706337155046093e-13   6.2226086660542391e-13   5.5467136583802120e-13   5.6885288451778892e-13   5.0428330114456910e-13   5.1747853289646837e-13   4.5602067948288301e-13   4.6826181189897836e-13   4.0999983931811141e-13   4.2132146380160076e-13   3.6633168158081835e-13   3.7677069928529249e-13   3.2512140787135921e-13   3.3471693080729258e-13   2.8646827380134547e-13   2.9526151866349825e-13   2.5046535723896757e-13   2.5849953392241158e-13   2.1719933229928365e-13   2.2451953641763530e-13   1.8675027698092437e-13   1.9340336282236309e-13   1.5919147554674323e-13   1.6522594010688964e-13   1.3458925381877483e-13   1.4005510744008519e-13   1.1300282054993693e-13   1.1795145666288879e-13   9.4484132032783664e-14   9.8968193300686070e-14   7.9077771739809729e-14   8.3151014165142399e-14   6.6820848720192758e-14   7.0537999437771274e-14   5.7742912795110282e-14   6.1159527374538869e-14   5.1865889977876029e-14   5.5038206956693523e-14   4.9204035736589449e-14   5.2188826308493220e-14   4.9763906134828810e-14   5.2618323939582651e-14   5.3544348965694494e-14   5.6325776026799683e-14   6.0536513724627499e-14   6.3302404825219228e-14   7.0723879993154249e-14   7.3531604182646207e-14   8.4082305365574490e-14   8.6988985910181771e-14   1.0058009202886801e-13   1.0364244394271595e-13   1.2017807244760373e-13   1.2345223759413877e-13   1.4282971384417089e-13   1.4637109327606389e-13   1.6848124098023867e-13   1.7234432508986847e-13   1.9707177845570673e-13   2.0130997320526014e-13   2.2853351068480944e-13   2.3319895936991015e-13   2.6279186021034094e-13   2.6793526145357488e-13   2.9976568397315822e-13   3.0543610334070131e-13   3.3936748993995457e-13   3.4561216301464151e-13   3.8150366687934547e-13   3.8836779468718476e-13   4.2607473769506042e-13   4.3360126843751406e-13   4.7297562717315995e-13   4.8120502424268584e-13   5.2209594874130268e-13   5.3106593954738304e-13   5.7332031198131767e-13   5.8306561031074337e-13   6.2652864704567121e-13   6.3708064634403650e-13   6.8159655128312462e-13   6.9298297733021781e-13   7.3839565833651774e-13   7.5064016822224425e-13   7.9679403029045341e-13   8.0991574833521704e-13   8.5665658105996359e-13   8.7066954366845597e-13   9.1784552982838936e-13   9.3275801904028185e-13   9.8022089538289668e-13   9.9603462421139071e-13   1.0436410429922571e-12   1.0603501402169451e-12   1.1079632916265306e-12   1.1255530275878337e-12   1.1730446110333214e-12   1.1914897647412833e-12   1.2387424302811197e-12   1.2580051766910290e-12   1.3049156074734338e-12   1.3249427453386918e-12   1.3714256330657532e-12   1.3921448897757037e-12   1.4381381595923056e-12   1.4594531998543510e-12   1.5049250313827703e-12   1.5267086101073557e-12   1.5716670665412580e-12   1.5937514855447724e-12   1.6382580230565997e-12   1.6604215974456233e-12   1.7046104647304047e-12   1.7265579584443739e-12   1.7706647776417897e-12   1.7919985324234837e-12   1.8364035843722441e-12   1.8565799159347412e-12   1.9018757787310534e-12   1.9201373903910112e-12   1.9672384150560090e-12   1.9825065523127370e-12   2.0328333829871290e-12   2.0435300362526814e-12   2.0993353411759292e-12   2.1030794830323628e-12   2.1680534841857933e-12   2.1611229414278995e-12   2.2415805713961685e-12   2.2179319834789260e-12   2.3252398019266739e-12   2.2747432685075219e-12   2.4302379182314387e-12   2.3360085214661425e-12   2.5789891844796235e-12   2.4176160481878691e-12   2.8008116728337168e-12   2.5784164073695267e-12   3.0398725262128563e-12   3.0326800372117445e-12   4.3860723034395525e-12   4.2579164910377760e-12   2.8098733256969750e-10   1.0367825918509350e-11   5.2564547257302326e-12   2.7681591534110486e-12   3.1062286027918099e-12   3.1062286028588277e-12   2.6848717271437062e-12   3.1768060487861038e-12   2.6023748998337726e-12   2.8955866599088041e-12   2.5993537652876528e-12   2.7222231925462015e-12   2.6238390594154267e-12   2.6713959749288663e-12   2.6532554906520232e-12   2.6697846154606484e-12   2.6802731285889420e-12   2.6842838428385951e-12   2.7027894343033437e-12   2.7022251907875917e-12   2.7203631998554944e-12   2.7187613024948292e-12   2.7330634336693646e-12   2.7320255265080636e-12   2.7410959373992372e-12   2.7413327299041514e-12   2.7446831437732309e-12   2.7464815289097910e-12   2.7440288895439667e-12   2.7474705943034666e-12   2.7393118521986863e-12   2.7443793997071237e-12   2.7306881259230084e-12   2.7373174281448216e-12   2.7182960935199790e-12   2.7264028869778400e-12   2.7022612662997254e-12   2.7117543789815540e-12   2.6827004123987614e-12   2.6934882755017330e-12   2.6597248471331591e-12   2.6717185154053214e-12   2.6334430056916794e-12   2.6465573676005294e-12   2.6039623907334231e-12   2.6181164579310494e-12   2.5713910529381001e-12   2.5865078066204111e-12   2.5358386858424737e-12   2.5518447162375494e-12   2.4974174301945648e-12   2.5142425218253667e-12   2.4562424515472953e-12   2.4738191545256667e-12   2.4124323268895376e-12   2.4306955808987485e-12   2.3661093061072008e-12   2.3849960933766992e-12   2.3173994445666875e-12   2.3368485101703565e-12   2.2664326576315901e-12   2.2863842624226217e-12   2.2133426877567151e-12   2.2337384207740914e-12   2.1582670260143566e-12   2.1790496465639983e-12   2.1013467688110971e-12   2.1224600931351634e-12   2.0427264458017657e-12   2.0641152542793159e-12   1.9825538060865876e-12   2.0041637849705043e-12   1.9209795727781427e-12   1.9427572750311228e-12   1.8581571837991251e-12   1.8800500080700228e-12   1.7942424934095147e-12   1.8161986815892506e-12   1.7293934793736688e-12   1.7513621275004397e-12   1.6637699102492018e-12   1.6857009887452491e-12   1.5975330214659499e-12   1.6193774057535350e-12   1.5308451718691774e-12   1.5525546792409083e-12   1.4638694777402208e-12   1.4853969163361256e-12   1.3967694699343249e-12   1.4180686918841852e-12   1.3297087293105796e-12   1.3507346768565234e-12   1.2628505031843694e-12   1.2835592719250987e-12   1.1963573530529171e-12   1.2167062510040687e-12   1.1303907724911085e-12   1.1503383825362790e-12   1.0651108232358329e-12   1.0846170631269379e-12   1.0006757615141519e-12   1.0197019458447671e-12   9.3724167403582841e-13   9.5575058053519011e-13   8.7496211128433283e-13   8.9291803749831522e-13   8.1398773983443996e-13   8.3135656593990705e-13   7.5446597678738576e-13   7.7121521996674006e-13   6.9654065657925863e-13   7.1263953239042560e-13   6.4035168439720852e-13   6.5577115611664843e-13   5.8603471641208545e-13   6.0074754748399955e-13   5.3372083572616697e-13   5.4770163358349783e-13   4.8353624173571053e-13   4.9676150810319805e-13   4.3560196032569962e-13   4.4805012600401053e-13   3.9003355221207128e-13   4.0168501711927823e-13   3.4694084727346091e-13   3.5777800907865601e-13   3.0642767669016209e-13   3.1643496251967905e-13   2.6859163976204757e-13   2.7775552574009715e-13   2.3352386417535816e-13   2.4183289762201952e-13   2.0130880044119268e-13   2.0875360865966700e-13   1.7202401756268528e-13   1.7859732027213923e-13   1.4574002299219734e-13   1.5143663331016650e-13   1.2252009988729179e-13   1.2733692383688271e-13   1.0242016021885705e-13   1.0635618449478074e-13   8.5488610033463260e-14   8.8544892718163024e-14   7.1766244222158062e-14   7.3945893102937908e-14   6.1286151095390489e-14   6.2594297638892342e-14   5.4073637476221096e-14   5.4517404967266082e-14   5.0146174915162308e-14   4.9734640696190459e-14   4.9513362326854566e-14   4.8257511490306279e-14   5.2176909932198957e-14   5.0089583715236760e-14   5.8130640126863853e-14   5.5226476790202409e-14   6.7360510621352274e-14   6.3655878897945804e-14   7.9844654035133629e-14   7.5357578640620374e-14   9.5553438522871895e-14   9.0303517869027382e-14   1.1444954732988693e-13   1.0845786172057397e-13   1.3648807661421258e-13   1.2977708818799742e-13   1.6161665316420751e-13   1.5421009512156962e-13   1.8977556980584811e-13   1.8169832504904250e-13   2.2089794037148186e-13   2.1217590841575531e-13   2.5490987230446547e-13   2.4556982191293578e-13   2.9173065712891291e-13   2.8180006543314288e-13   3.3127297815406190e-13   3.2077985177188483e-13   3.7344313720835397e-13   3.6241581551180964e-13   4.1814129600104679e-13   4.0660823021262399e-13   4.6526173636898568e-13   4.5325124428543710e-13   5.1469313499077891e-13   5.0223312393557179e-13   5.6631885581413529e-13   5.5343651036036236e-13   6.2001725676096411e-13   6.0673868071172246e-13   6.7566201407993529e-13   6.6201182059568861e-13   7.3312245945618297e-13   7.1912329608785783e-13   7.9226393430614736e-13   7.7793592843907962e-13   8.5294815922762853e-13   8.3830826315840598e-13   9.1503361933070024e-13   9.0009483241416737e-13   9.7837596475322909e-13   9.6314639868658656e-13   1.0428284260730960e-12   1.0273101735225822e-12   1.1082422520191970e-12   1.0924299974752196e-12   1.1744671584417931e-12   1.1583464683016560e-12   1.2413517991165368e-12   1.2248969811456412e-12   1.3087442551684720e-12   1.2919156671506595e-12   1.3764925405251095e-12   1.3592331616304131e-12   1.4444451210602775e-12   1.4266761533350890e-12   1.5124514345572063e-12   1.4940666008126116e-12   1.5803623932102278e-12   1.5612204833016032e-12   1.6480308165145441e-12   1.6279458650028464e-12   1.7153116870333028e-12   1.6940399537425753e-12   1.7820620215802640e-12   1.7592846678030672e-12   1.8481398911552204e-12   1.8234399749402985e-12   1.9134015936476108e-12   1.8862338712504133e-12   1.9776947245915664e-12   1.9473473169229661e-12   2.0408418509693061e-12   2.0063916265466270e-12   2.1026016586391649e-12   2.0628749135807733e-12   2.1625730446821268e-12   2.1161536907003591e-12   2.2199456581565848e-12   2.1653676152011699e-12   2.2728122149365202e-12   2.2093641888892932e-12   2.3161787505017420e-12   2.2466378233532524e-12   2.3361728590242939e-12   2.2752547931924404e-12   2.2954445181942184e-12   2.2918656509294274e-12   2.1266251463862755e-12   2.2828114769542765e-12   2.0868481191590271e-12   2.1820700419508818e-12   5.5952657659905913e-12   2.0024506010416342e-12   4.4354271749715113e-12   4.2999899747058740e-12   2.5651200456260409e-12   2.2571673236874500e-12   3.1768060487660818e-12   2.6848717271474459e-12   2.8887679064125032e-12   2.8887679063650232e-12   2.7696889680403490e-12   2.9473729209703293e-12   2.7280495508181580e-12   2.8849085591794664e-12   2.7193236612682427e-12   2.8219609302217016e-12   2.7251917596677496e-12   2.7876964876315560e-12   2.7363229031171391e-12   2.7744508998602463e-12   2.7479913972988921e-12   2.7721150350693512e-12   2.7578879833609919e-12   2.7741751924875011e-12   2.7649090758340897e-12   2.7769651266488303e-12   2.7685432155174043e-12   2.7784872058643242e-12   2.7685712950265282e-12   2.7776613998545092e-12   2.7649205764613295e-12   2.7739094649586428e-12   2.7575929361455057e-12   2.7669311547631718e-12   2.7466291898854632e-12   2.7565833959955515e-12   2.7320912287504937e-12   2.7428141949662789e-12   2.7140530772254926e-12   2.7256259114918955e-12   2.6925964807425827e-12   2.7050545460586438e-12   2.6678088045535516e-12   2.6811578827075848e-12   2.6397821032629172e-12   2.6540086370347480e-12   2.6086127812913141e-12   2.6236904347662407e-12   2.5744015132732338e-12   2.5902954382237065e-12   2.5372532852046443e-12   2.5539229227079368e-12   2.4972774612569077e-12   2.5146783942265574e-12   2.4545878367948284e-12   2.4726730369218770e-12   2.4093026594961939e-12   2.4280233273306406e-12   2.3615446041479649e-12   2.3808507476067612e-12   2.3114407149967721e-12   2.3312815540744972e-12   2.2591223002339131e-12   2.2794465482870693e-12   2.2047247890558850e-12   2.2254808680584029e-12   2.1483875624117099e-12   2.1695237560062574e-12   2.0902537357822331e-12   2.1117183203883445e-12   2.0304699453498861e-12   2.0522112874617749e-12   1.9691860705132283e-12   1.9911527238639559e-12   1.9065549746669696e-12   1.9286957547692738e-12   1.8427321944860009e-12   1.8649962638715059e-12   1.7778756424016245e-12   1.8002125764694849e-12   1.7121452659897286e-12   1.7345051383772905e-12   1.6457027240917546e-12   1.6680361704371131e-12   1.5787110286395202e-12   1.6009693298300255e-12   1.5113341973630686e-12   1.5334693464586004e-12   1.4437368837125115e-12   1.4657016683143612e-12   1.3760840144648383e-12   1.3978320879862098e-12   1.3085404142406940e-12   1.3300263757947140e-12   1.2412704351461952e-12   1.2624499012797137e-12   1.1744375751326227e-12   1.1952672616338198e-12   1.1082041080865878e-12   1.1286419020282634e-12   1.0427307045037570e-12   1.0627357405482504e-12   9.7817606672541439e-13   9.9770879667656673e-13   9.1469654849420106e-13   9.3371881825884082e-13   8.5244580251385173e-13   8.7092091702088184e-13   7.9157441029518991e-13   8.0946720635655179e-13   7.3222954051992013e-13   7.4950644872520418e-13   6.7455459526407214e-13   6.9118370225393732e-13   6.1868887707287758e-13   6.3463998723304402e-13   5.6476726219021284e-13   5.8001195170855214e-13   5.1291987914798516e-13   5.2743155101454903e-13   4.6327180689042544e-13   4.7702573846499363e-13   4.1594277843624299e-13   4.2891616642481667e-13   3.7104689632809916e-13   3.8321889948967008e-13   3.2869236907514609e-13   3.4004414051186094e-13   2.8898124983335805e-13   2.9949597193810315e-13   2.5200919921011259e-13   2.6167211333738400e-13   2.1786526334826448e-13   2.2666368452801531e-13   1.8663165605628608e-13   1.9455499744258108e-13   1.5838357457683337e-13   1.6542335431589149e-13   1.3318901797552105e-13   1.3933886757588848e-13   1.1110862845247202e-13   1.1636429356913570e-13   9.2195553182385474e-14   9.6554886918829949e-14   7.6495316944406340e-14   7.9958270753915494e-14   6.4045719447872406e-14   6.6614324973441695e-14   5.4876747810846788e-14   5.6555094914409760e-14   4.9010509862718412e-14   4.9804716291320794e-14   4.6461184708706339e-14   4.6379359198461446e-14   4.7234993543912401e-14   4.6287194711500874e-14   5.1330188779415045e-14   4.9528374700793194e-14   5.8737063592959835e-14   5.6095034903738749e-14   6.9437979648623369e-14   6.5971315474394157e-14   8.3407414305373881e-14   7.9133400167886280e-14   1.0061202695259034e-13   9.5549574449048854e-14   1.2101074356724630e-13   1.1518030222478467e-13   1.4455486116220530e-13   1.3797832002116847e-13   1.7118816854449641e-13   1.6388874921802738e-13   2.0084708701086131e-13   1.9284922568182451e-13   2.3346082721084650e-13   2.2479004539019800e-13   2.6895156384027985e-13   2.5963432639867381e-13   3.0723462576334194e-13   2.9729818582242533e-13   3.4821870342043996e-13   3.3769093147258068e-13   3.9180606974369557e-13   3.8071526519661199e-13   4.3789281618391648e-13   4.2626749962307664e-13   4.8636910099152819e-13   4.7423778377108408e-13   5.3711941130319607e-13   5.2451033791334175e-13   5.9002283131220936e-13   5.7696369323984869e-13   6.4495332449667543e-13   6.3147093526058577e-13   7.0178001731010067e-13   6.8789994736632468e-13   7.6036748776611869e-13   7.4611364832159886e-13   8.2057605459677884e-13   8.0597021932121736e-13   8.8226205917285642e-13   8.6732331478979586e-13   9.4527813510407309e-13   9.3002224478481304e-13   1.0094734591142550e-12   9.9391211633945147e-13   1.0746939616382093e-12   1.0588339221651703e-12   1.1407824939349814e-12   1.1246245477281370e-12   1.2075789057109355e-12   1.1911166693844834e-12   1.2749200190239719e-12   1.2581385019941526e-12   1.3426394121922142e-12   1.3255133355396785e-12   1.4105669580434984e-12   1.3930587770972284e-12   1.4785279577038531e-12   1.4605855811998090e-12   1.5463416721247420e-12   1.5278958932560084e-12   1.6138189054643958e-12   1.5947806601354026e-12   1.6807580881837580e-12   1.6610158272698841e-12   1.7469389132001991e-12   1.7263567758546128e-12   1.8121119051364135e-12   1.7905301455168779e-12   1.8759810300825435e-12   1.8532217577967317e-12   1.9381740590498167e-12   1.9140586178900337e-12   1.9981906527556661e-12   1.9725818328846403e-12   2.0553085886294922e-12   2.0282053622282700e-12   2.1084086555980336e-12   2.0801522774041995e-12   2.1556371158483785e-12   2.1273542655651334e-12   2.1937400832116921e-12   2.1682880341959134e-12   2.2167567574511009e-12   2.2006936322854761e-12   2.2136564022582011e-12   2.2210446759907134e-12   2.1654514711624121e-12   2.2234687410523935e-12   2.0495600862892556e-12   2.1978395347950374e-12   1.8878621861121598e-12   2.1312068577472722e-12   1.8789661774633061e-12   2.0520326929786717e-12   2.1334905905364326e-12   2.2470924366144212e-12   3.1435411103204227e-12   3.1699673501745954e-12   2.3690522772878572e-12   2.3242637166277187e-12   2.8955866599470984e-12   2.6023748999365635e-12   2.9473729210842698e-12   2.7696889679273241e-12   2.8778626914306338e-12   2.8778626914162433e-12   2.8297376203399216e-12   2.9055322264458048e-12   2.8053163391839938e-12   2.8886148297190897e-12   2.7955191989429287e-12   2.8637051452566549e-12   2.7935423155700133e-12   2.8445648081660923e-12   2.7949099682954635e-12   2.8323832031047396e-12   2.7968305631494469e-12   2.8247899121954106e-12   2.7976211007652077e-12   2.8192555197726362e-12   2.7962872937686760e-12   2.8138751523591746e-12   2.7922509600365920e-12   2.8073612653669246e-12   2.7851836740163899e-12   2.7988824561195598e-12   2.77490802