<?xml version="1.0"?>
<VTKFile type="UnstructuredGrid"  version="0.1"  >
<UnstructuredGrid>
<Piece  NumberOfPoints="16641" NumberOfCells="32768">
<Points>
<DataArray  type="Float64"  NumberOfComponents="3"  format="ascii">0 0 0  0.0078125 0 0  0.015625 0 0  0.0234375 0 0  0.03125 0 0  0.0390625 0 0  0.046875 0 0  0.0546875 0 0  0.0625 0 0  0.0703125 0 0  0.078125 0 0  0.0859375 0 0  0.09375 0 0  0.1015625 0 0  0.109375 0 0  0.1171875 0 0  0.125 0 0  0.1328125 0 0  0.140625 0 0  0.1484375 0 0  0.15625 0 0  0.1640625 0 0  0.171875 0 0  0.1796875 0 0  0.1875 0 0  0.1953125 0 0  0.203125 0 0  0.2109375 0 0  0.21875 0 0  0.2265625 0 0  0.234375 0 0  0.2421875 0 0  0.25 0 0  0.2578125 0 0  0.265625 0 0  0.2734375 0 0  0.28125 0 0  0.2890625 0 0  0.296875 0 0  0.3046875 0 0  0.3125 0 0  0.3203125 0 0  0.328125 0 0  0.3359375 0 0  0.34375 0 0  0.3515625 0 0  0.359375 0 0  0.3671875 0 0  0.375 0 0  0.3828125 0 0  0.390625 0 0  0.3984375 0 0  0.40625 0 0  0.4140625 0 0  0.421875 0 0  0.4296875 0 0  0.4375 0 0  0.4453125 0 0  0.453125 0 0  0.4609375 0 0  0.46875 0 0  0.4765625 0 0  0.484375 0 0  0.4921875 0 0  0.5 0 0  0.5078125 0 0  0.515625 0 0  0.5234375 0 0  0.53125 0 0  0.5390625 0 0  0.546875 0 0  0.5546875 0 0  0.5625 0 0  0.5703125 0 0  0.578125 0 0  0.5859375 0 0  0.59375 0 0  0.6015625 0 0  0.609375 0 0  0.6171875 0 0  0.625 0 0  0.6328125 0 0  0.640625 0 0  0.6484375 0 0  0.65625 0 0  0.6640625 0 0  0.671875 0 0  0.6796875 0 0  0.6875 0 0  0.6953125 0 0  0.703125 0 0  0.7109375 0 0  0.71875 0 0  0.7265625 0 0  0.734375 0 0  0.7421875 0 0  0.75 0 0  0.7578125 0 0  0.765625 0 0  0.7734375 0 0  0.78125 0 0  0.7890625 0 0  0.796875 0 0  0.8046875 0 0  0.8125 0 0  0.8203125 0 0  0.828125 0 0  0.8359375 0 0  0.84375 0 0  0.8515625 0 0  0.859375 0 0  0.8671875 0 0  0.875 0 0  0.8828125 0 0  0.890625 0 0  0.8984375 0 0  0.90625 0 0  0.9140625 0 0  0.921875 0 0  0.9296875 0 0  0.9375 0 0  0.9453125 0 0  0.953125 0 0  0.9609375 0 0  0.96875 0 0  0.9765625 0 0  0.984375 0 0  0.9921875 0 0  1 0 0  0 0.0078125 0  0.0078125 0.0078125 0  0.015625 0.0078125 0  0.0234375 0.0078125 0  0.03125 0.0078125 0  0.0390625 0.0078125 0  0.046875 0.0078125 0  0.0546875 0.0078125 0  0.0625 0.0078125 0  0.0703125 0.0078125 0  0.078125 0.0078125 0  0.0859375 0.0078125 0  0.09375 0.0078125 0  0.1015625 0.0078125 0  0.109375 0.0078125 0  0.1171875 0.0078125 0  0.125 0.0078125 0  0.1328125 0.0078125 0  0.140625 0.0078125 0  0.1484375 0.0078125 0  0.15625 0.0078125 0  0.1640625 0.0078125 0  0.171875 0.0078125 0  0.1796875 0.0078125 0  0.1875 0.0078125 0  0.1953125 0.0078125 0  0.203125 0.0078125 0  0.2109375 0.0078125 0  0.21875 0.0078125 0  0.2265625 0.0078125 0  0.234375 0.0078125 0  0.2421875 0.0078125 0  0.25 0.0078125 0  0.2578125 0.0078125 0  0.265625 0.0078125 0  0.2734375 0.0078125 0  0.28125 0.0078125 0  0.2890625 0.0078125 0  0.296875 0.0078125 0  0.3046875 0.0078125 0  0.3125 0.0078125 0  0.3203125 0.0078125 0  0.328125 0.0078125 0  0.3359375 0.0078125 0  0.34375 0.0078125 0  0.3515625 0.0078125 0  0.359375 0.0078125 0  0.3671875 0.0078125 0  0.375 0.0078125 0  0.3828125 0.0078125 0  0.390625 0.0078125 0  0.3984375 0.0078125 0  0.40625 0.0078125 0  0.4140625 0.0078125 0  0.421875 0.0078125 0  0.4296875 0.0078125 0  0.4375 0.0078125 0  0.4453125 0.0078125 0  0.453125 0.0078125 0  0.4609375 0.0078125 0  0.46875 0.0078125 0  0.4765625 0.0078125 0  0.484375 0.0078125 0  0.4921875 0.0078125 0  0.5 0.0078125 0  0.5078125 0.0078125 0  0.515625 0.0078125 0  0.5234375 0.0078125 0  0.53125 0.0078125 0  0.5390625 0.0078125 0  0.546875 0.0078125 0  0.5546875 0.0078125 0  0.5625 0.0078125 0  0.5703125 0.0078125 0  0.578125 0.0078125 0  0.5859375 0.0078125 0  0.59375 0.0078125 0  0.6015625 0.0078125 0  0.609375 0.0078125 0  0.6171875 0.0078125 0  0.625 0.0078125 0  0.6328125 0.0078125 0  0.640625 0.0078125 0  0.6484375 0.0078125 0  0.65625 0.0078125 0  0.6640625 0.0078125 0  0.671875 0.0078125 0  0.6796875 0.0078125 0  0.6875 0.0078125 0  0.6953125 0.0078125 0  0.703125 0.0078125 0  0.7109375 0.0078125 0  0.71875 0.0078125 0  0.7265625 0.0078125 0  0.734375 0.0078125 0  0.7421875 0.0078125 0  0.75 0.0078125 0  0.7578125 0.0078125 0  0.765625 0.0078125 0  0.7734375 0.0078125 0  0.78125 0.0078125 0  0.7890625 0.0078125 0  0.796875 0.0078125 0  0.8046875 0.0078125 0  0.8125 0.0078125 0  0.8203125 0.0078125 0  0.828125 0.0078125 0  0.8359375 0.0078125 0  0.84375 0.0078125 0  0.8515625 0.0078125 0  0.859375 0.0078125 0  0.8671875 0.0078125 0  0.875 0.0078125 0  0.8828125 0.0078125 0  0.890625 0.0078125 0  0.8984375 0.0078125 0  0.90625 0.0078125 0  0.9140625 0.0078125 0  0.921875 0.0078125 0  0.9296875 0.0078125 0  0.9375 0.0078125 0  0.9453125 0.0078125 0  0.953125 0.0078125 0  0.9609375 0.0078125 0  0.96875 0.0078125 0  0.9765625 0.0078125 0  0.984375 0.0078125 0  0.9921875 0.0078125 0  1 0.0078125 0  0 0.015625 0  0.0078125 0.015625 0  0.015625 0.015625 0  0.0234375 0.015625 0  0.03125 0.015625 0  0.0390625 0.015625 0  0.046875 0.015625 0  0.0546875 0.015625 0  0.0625 0.015625 0  0.0703125 0.015625 0  0.078125 0.015625 0  0.0859375 0.015625 0  0.09375 0.015625 0  0.1015625 0.015625 0  0.109375 0.015625 0  0.1171875 0.015625 0  0.125 0.015625 0  0.1328125 0.015625 0  0.140625 0.015625 0  0.1484375 0.015625 0  0.15625 0.015625 0  0.1640625 0.015625 0  0.171875 0.015625 0  0.1796875 0.015625 0  0.1875 0.015625 0  0.1953125 0.015625 0  0.203125 0.015625 0  0.2109375 0.015625 0  0.21875 0.015625 0  0.2265625 0.015625 0  0.234375 0.015625 0  0.2421875 0.015625 0  0.25 0.015625 0  0.2578125 0.015625 0  0.265625 0.015625 0  0.2734375 0.015625 0  0.28125 0.015625 0  0.2890625 0.015625 0  0.296875 0.015625 0  0.3046875 0.015625 0  0.3125 0.015625 0  0.3203125 0.015625 0  0.328125 0.015625 0  0.3359375 0.015625 0  0.34375 0.015625 0  0.3515625 0.015625 0  0.359375 0.015625 0  0.3671875 0.015625 0  0.375 0.015625 0  0.3828125 0.015625 0  0.390625 0.015625 0  0.3984375 0.015625 0  0.40625 0.015625 0  0.4140625 0.015625 0  0.421875 0.015625 0  0.4296875 0.015625 0  0.4375 0.015625 0  0.4453125 0.015625 0  0.453125 0.015625 0  0.4609375 0.015625 0  0.46875 0.015625 0  0.4765625 0.015625 0  0.484375 0.015625 0  0.4921875 0.015625 0  0.5 0.015625 0  0.5078125 0.015625 0  0.515625 0.015625 0  0.5234375 0.015625 0  0.53125 0.015625 0  0.5390625 0.015625 0  0.546875 0.015625 0  0.5546875 0.015625 0  0.5625 0.015625 0  0.5703125 0.015625 0  0.578125 0.015625 0  0.5859375 0.015625 0  0.59375 0.015625 0  0.6015625 0.015625 0  0.609375 0.015625 0  0.6171875 0.015625 0  0.625 0.015625 0  0.6328125 0.015625 0  0.640625 0.015625 0  0.6484375 0.015625 0  0.65625 0.015625 0  0.6640625 0.015625 0  0.671875 0.015625 0  0.6796875 0.015625 0  0.6875 0.015625 0  0.6953125 0.015625 0  0.703125 0.015625 0  0.7109375 0.015625 0  0.71875 0.015625 0  0.7265625 0.015625 0  0.734375 0.015625 0  0.7421875 0.015625 0  0.75 0.015625 0  0.7578125 0.015625 0  0.765625 0.015625 0  0.7734375 0.015625 0  0.78125 0.015625 0  0.7890625 0.015625 0  0.796875 0.015625 0  0.8046875 0.015625 0  0.8125 0.015625 0  0.8203125 0.015625 0  0.828125 0.015625 0  0.8359375 0.015625 0  0.84375 0.015625 0  0.8515625 0.015625 0  0.859375 0.015625 0  0.8671875 0.015625 0  0.875 0.015625 0  0.8828125 0.015625 0  0.890625 0.015625 0  0.8984375 0.015625 0  0.90625 0.015625 0  0.9140625 0.015625 0  0.921875 0.015625 0  0.9296875 0.015625 0  0.9375 0.015625 0  0.9453125 0.015625 0  0.953125 0.015625 0  0.9609375 0.015625 0  0.96875 0.015625 0  0.9765625 0.015625 0  0.984375 0.015625 0  0.9921875 0.015625 0  1 0.015625 0  0 0.0234375 0  0.0078125 0.0234375 0  0.015625 0.0234375 0  0.0234375 0.0234375 0  0.03125 0.0234375 0  0.0390625 0.0234375 0  0.046875 0.0234375 0  0.0546875 0.0234375 0  0.0625 0.0234375 0  0.0703125 0.0234375 0  0.078125 0.0234375 0  0.0859375 0.0234375 0  0.09375 0.0234375 0  0.1015625 0.0234375 0  0.109375 0.0234375 0  0.1171875 0.0234375 0  0.125 0.0234375 0  0.1328125 0.0234375 0  0.140625 0.0234375 0  0.1484375 0.0234375 0  0.15625 0.0234375 0  0.1640625 0.0234375 0  0.171875 0.0234375 0  0.1796875 0.0234375 0  0.1875 0.0234375 0  0.1953125 0.0234375 0  0.203125 0.0234375 0  0.2109375 0.0234375 0  0.21875 0.0234375 0  0.2265625 0.0234375 0  0.234375 0.0234375 0  0.2421875 0.0234375 0  0.25 0.0234375 0  0.2578125 0.0234375 0  0.265625 0.0234375 0  0.2734375 0.0234375 0  0.28125 0.0234375 0  0.2890625 0.0234375 0  0.296875 0.0234375 0  0.3046875 0.0234375 0  0.3125 0.0234375 0  0.3203125 0.0234375 0  0.328125 0.0234375 0  0.3359375 0.0234375 0  0.34375 0.0234375 0  0.3515625 0.0234375 0  0.359375 0.0234375 0  0.3671875 0.0234375 0  0.375 0.0234375 0  0.3828125 0.0234375 0  0.390625 0.0234375 0  0.3984375 0.0234375 0  0.40625 0.0234375 0  0.4140625 0.0234375 0  0.421875 0.0234375 0  0.4296875 0.0234375 0  0.4375 0.0234375 0  0.4453125 0.0234375 0  0.453125 0.0234375 0  0.4609375 0.0234375 0  0.46875 0.0234375 0  0.4765625 0.0234375 0  0.484375 0.0234375 0  0.4921875 0.0234375 0  0.5 0.0234375 0  0.5078125 0.0234375 0  0.515625 0.0234375 0  0.5234375 0.0234375 0  0.53125 0.0234375 0  0.5390625 0.0234375 0  0.546875 0.0234375 0  0.5546875 0.0234375 0  0.5625 0.0234375 0  0.5703125 0.0234375 0  0.578125 0.0234375 0  0.5859375 0.0234375 0  0.59375 0.0234375 0  0.6015625 0.0234375 0  0.609375 0.0234375 0  0.6171875 0.0234375 0  0.625 0.0234375 0  0.6328125 0.0234375 0  0.640625 0.0234375 0  0.6484375 0.0234375 0  0.65625 0.0234375 0  0.6640625 0.0234375 0  0.671875 0.0234375 0  0.6796875 0.0234375 0  0.6875 0.0234375 0  0.6953125 0.0234375 0  0.703125 0.0234375 0  0.7109375 0.0234375 0  0.71875 0.0234375 0  0.7265625 0.0234375 0  0.734375 0.0234375 0  0.7421875 0.0234375 0  0.75 0.0234375 0  0.7578125 0.0234375 0  0.765625 0.0234375 0  0.7734375 0.0234375 0  0.78125 0.0234375 0  0.7890625 0.0234375 0  0.796875 0.0234375 0  0.8046875 0.0234375 0  0.8125 0.0234375 0  0.8203125 0.0234375 0  0.828125 0.0234375 0  0.8359375 0.0234375 0  0.84375 0.0234375 0  0.8515625 0.0234375 0  0.859375 0.0234375 0  0.8671
[...]
<CellData  Scalars="f_67448"> 
<DataArray  type="Float64"  Name="f_67448"  format="ascii">9.1539444871562825e-06   9.1539444871562571e-06   9.1324562100992422e-06   9.1377397329468578e-06   9.1002584906209276e-06   9.1108107318992976e-06   9.0574152473304291e-06   9.0732088456038130e-06   9.0040179290846057e-06   9.0250130241141045e-06   8.9401843869634334e-06   8.9663287003363470e-06   8.8660581763127979e-06   8.8972871201167764e-06   8.7818080028902320e-06   8.8180448178352028e-06   8.6876272051793439e-06   8.7287831284276000e-06   8.5837332267644427e-06   8.6297076892910134e-06   8.4703670576321954e-06   8.5210479107242112e-06   8.3477926343345137e-06   8.4030564047171031e-06   8.2162961942589312e-06   8.2760083672323136e-06   8.0761855820048436e-06   8.1402009119011228e-06   7.9277895073987906e-06   7.9959523545950999e-06   7.7714567555993740e-06   7.8436014492585638e-06   7.6075553503334538e-06   7.6835065759749282e-06   7.4364716717073370e-06   7.5160448826577021e-06   7.2586095303332608e-06   7.3416113820348267e-06   7.0743891997342360e-06   7.1606180058589046e-06   6.8842464091746084e-06   6.9734926184054598e-06   6.6886312992132032e-06   6.7806779915369533e-06   6.4880073424035758e-06   6.5826307436903493e-06   6.2828502316799049e-06   6.3798202452900461e-06   6.0736467390617894e-06   6.1727274931811455e-06   5.8608935473993189e-06   5.9618439567595641e-06   5.6450960579565517e-06   5.7476703985720857e-06   5.4267671766927601e-06   5.5307156722039667e-06   5.2064260821650903e-06   5.3114955003600729e-06   4.9845969780199454e-06   5.0905312360761390e-06   4.7618078330830395e-06   4.8683486100515356e-06   4.5385891120906032e-06   4.6454764671307041e-06   4.3154725001281097e-06   4.4224454949809059e-06   4.0929896238602142e-06   4.1997869480500271e-06   3.8716707726438052e-06   3.9780313698741808e-06   3.6520436226187406e-06   3.7577073168466504e-06   3.4346319668597747e-06   3.5393400865171857e-06   3.2199544546671535e-06   3.3234504535108288e-06   3.0085233430408860e-06   3.1105534161227079e-06   2.8008432633644608e-06   2.9011569566143941e-06   2.5974100062808592e-06   2.6957608182301630e-06   2.3987093277007496e-06   2.4948553018709337e-06   2.2052157788339394e-06   2.2989200853616797e-06   2.0173915630753215e-06   2.1084230681445591e-06   1.8356854225103301e-06   1.9238192442214674e-06   1.6605315567362683e-06   1.7455496060511187e-06   1.4923485766149833e-06   1.5740400820652669e-06   1.3315384954890841e-06   1.4097005103730801e-06   1.1784857603024473e-06   1.2529236511396946e-06   1.0335563249698340e-06   1.1040842400211620e-06   8.9709676823772295e-07   9.6353808495623015e-07   7.6943345817098951e-07   8.3162120849696574e-07   6.5087176528630195e-07   7.0864903775089617e-07   5.4169532623752056e-07   5.9491564389874421e-07   4.4216535983279956e-07   4.9069303312680131e-07   3.5252003703958668e-07   3.9623049068914381e-07   2.7297390650194640e-07   3.1175397968866601e-07   2.0371737695799446e-07   2.3746559602863054e-07   1.4491625781237022e-07   1.7354308085778095e-07   9.6711358973073038e-08   1.2013939168486685e-07   5.9218150922326463e-08   7.7382333203303817e-08   3.2526485842212273e-08   4.5374248717976817e-08   1.6700380471167943e-08   2.4191772920893468e-08   1.1777861216087128e-08   1.3885646614341614e-08   1.7770871894419589e-08   1.4480593830708778e-08   3.4665244329820513e-08   2.5975261645082809e-08   6.2420731872530416e-08   4.8342222827349756e-08   1.0097110576317487e-07   8.1528041327771446e-08   1.5022431410687487e-07   1.2545340043721953e-07   2.1006270307334286e-07   1.8001329331304730e-07   2.8034329978701890e-07   2.4507727540830380e-07   3.6089815622456949e-07   3.2048977819744488e-07   4.5153475328536080e-07   4.0607048343455912e-07   5.5203646405944085e-07   5.0161475704309645e-07   6.6216307517062693e-07   6.0689414158708202e-07   7.8165136493491435e-07   7.2165690612898815e-07   9.1021573693322098e-07   8.4562865214956057e-07   1.0475489074670372e-06   9.7851297405812497e-07   1.1933226452336017e-06   1.1199921727014566e-06   1.3471885614288976e-06   1.2697280201368042e-06   1.5087789483687005e-06   1.4273625738285314e-06   1.6777076645965415e-06   1.5925190382889170e-06   1.8535710643368305e-06   1.7648026720837499e-06   2.0359489690441604e-06   1.9438017380058861e-06   2.2244056786961377e-06   2.1290884941159343e-06   2.4184910203819943e-06   2.3202202232554088e-06   2.6177414316490386e-06   2.5167402985334625e-06   2.8216810759835743e-06   2.7181792822163687e-06   3.0298229877247560e-06   2.9240560553485363e-06   3.2416702436401858e-06   3.1338789753829938e-06   3.4567171583250701e-06   3.3471470590065266e-06   3.6744505005295563e-06   3.5633511873005329e-06   3.8943507274676376e-06   3.7819753303153402e-06   4.1158932341174467e-06   4.0024977880979732e-06   4.3385496144859231e-06   4.2243924451555984e-06   4.5617889317797504e-06   4.4471300353261144e-06   4.7850789944046098e-06   4.6701794139793407e-06   5.0078876346977847e-06   4.8930088344713273e-06   5.2296839872934085e-06   5.1150872257568901e-06   5.4499397640174285e-06   5.3358854680506393e-06   5.6681305222201824e-06   5.5548776634524815e-06   5.8837369234627073e-06   5.7715423984485323e-06   6.0962459795018842e-06   5.9853639952155651e-06   6.3051522825446444e-06   6.1958337486903446e-06   6.5099592167731749e-06   6.4024511463964077e-06   6.7101801481968565e-06   6.6047250680508604e-06   6.9053395899198821e-06   6.8021749620310585e-06   7.0949743399821000e-06   6.9943319958157429e-06   7.2786345889835456e-06   7.1807401776017026e-06   7.4558849947675233e-06   7.3609574463106895e-06   7.6263057215098648e-06   7.5345567273230745e-06   7.7894934406319142e-06   7.7011269512953687e-06   7.9450622910203399e-06   7.8602740335120035e-06   8.0926447961165955e-06   8.0116218112839493e-06   8.2318927354882267e-06   8.1548129369544814e-06   8.3624779685463088e-06   8.2895097241248977e-06   8.4840932080893625e-06   8.4153949447223694e-06   8.5964527413105436e-06   8.5321725744874955e-06   8.6992930957857034e-06   8.6395684843298277e-06   8.7923736476450017e-06   8.7373310746872758e-06   8.8754771684950638e-06   8.8252318493693449e-06   8.9484103063372052e-06   8.9030659240375820e-06   9.0110039929488064e-06   8.9706524616530384e-06   9.0631137639709316e-06   9.0278350209293516e-06   9.1046199628341888e-06   9.0744817885221887e-06   9.1354277582407394e-06   9.1104856237151341e-06   9.1554667710910828e-06   9.1357637087751274e-06   9.1646895464551986e-06   9.1502560315857476e-06   9.1377397329468510e-06   9.1324562100991947e-06   9.1163772067208337e-06   9.1163772067208286e-06   9.0843256597989558e-06   9.0896069096375843e-06   9.0416561281956192e-06   9.0522038054252669e-06   8.9884631001193613e-06   9.0042498477536859e-06   8.9248657955785883e-06   8.9458517685716224e-06   8.8510083088555961e-06   8.8771412511351915e-06   8.7670594146413579e-06   8.7982747665723176e-06   8.6732122209235328e-06   8.7094332570263070e-06   8.5696837293875422e-06   8.6108217260435468e-06   8.4567143259077729e-06   8.5026687587011801e-06   8.3345672103275892e-06   8.3852259805406243e-06   8.2035277698560019e-06   8.2587674595929597e-06   8.0639028986573943e-06   8.1235890539633369e-06   7.9160202656056711e-06   7.9800077068896324e-06   7.7602275320222085e-06   7.8283606910127022e-06   7.5968915212329121e-06   7.6690048036417176e-06   7.4263973418812549e-06   7.5023155148782574e-06   7.2491474670261929e-06   7.3286860705748850e-06   7.0655607712074179e-06   7.1485265522388074e-06   6.8760715277182982e-06   6.9622628960925692e-06   6.6811283684985541e-06   6.7703358736179667e-06   6.4811932091053914e-06   6.5732000360214602e-06   6.2767401413464494e-06   6.3713226251379602e-06   6.0682542962336068e-06   6.1651824533980678e-06   5.8562306799861750e-06   5.9552687555473102e-06   5.6411729858997354e-06   5.7420800148822545e-06   5.4235923849327217e-06   5.5261227668440413e-06   5.2040062979450058e-06   5.3079103828508770e-06   4.9829371525466059e-06   5.0879618373142177e-06   4.7609111275647887e-06   4.8668004608158445e-06   4.5384568881684911e-06   4.6449526824641093e-06   4.3161043147043835e-06   4.4229467644723363e-06   4.0943832283306155e-06   4.2013115320228561e-06   3.8738221165164244e-06   3.9805751014893723e-06   3.6549468615130817e-06   3.7612636100940366e-06   3.4382794748547956e-06   3.5438999500814991e-06   3.2243368409649785e-06   3.3290025104708019e-06   3.0136294729069898e-06   3.1170839294235082e-06   2.8066602832820384e-06   2.9086498602683379e-06   2.6039233732687840e-06   2.7041977541444551e-06   2.4059028427123870e-06   2.5042156622357258e-06   2.2130716241677130e-06   2.3091810604735433e-06   2.0258903436920515e-06   2.1195596995695183e-06   1.8448062111729037e-06   1.9358044831525176e-06   1.6702519428535636e-06   1.7583543767331367e-06   1.5026447186760526e-06   1.5876333501243520e-06   1.3423851769620139e-06   1.4240493558933354e-06   1.1898564488670609e-06   1.2679933463075862e-06   1.0454232349371289e-06   1.1198383311531966e-06   9.0943092601038969e-07   9.7993847871480238e-07   7.8220477058944562e-07   8.4862826208119091e-07   6.6404909069487216e-07   7.2622165285153991e-07   5.5524654810057539e-07   6.1301136419333011e-07   4.5605746272663550e-07   5.0926814507356090e-07   3.6671918483697723e-07   4.1524012738384181e-07   2.8744552256264556e-07   3.3115222753311325e-07   2.1842622613305630e-07   2.5720560395362653e-07   1.5982653006611892e-07   1.9357717184036222e-07   1.1178675442213737e-07   1.4041917628894185e-07   7.4421966087892055e-08   9.7858824872813401e-08   4.7821700909118781e-08   6.5997980544842058e-08   3.2049747343944380e-08   4.4912915606246530e-08   2.7143992160775428e-08   3.4654127339648365e-08   3.3116328553714942e-08   3.5246215753077243e-08   4.9952626897012779e-08   4.6687823728159305e-08   7.7612768210869581e-08   6.8951639719538642e-08   1.1603074025588023e-07   1.0198446299958560e-07   1.6511479602399132e-07   1.4570733128848889e-07   2.2474767424339495e-07   2.0001571046342386e-07   2.9478688136163169e-07   2.6477974588582949e-07   3.7506503432847961e-07   3.3984457474215738e-07   4.6539026334390677e-07   4.2503069863817117e-07   5.6554667360104604e-07   5.2013441554893591e-07   6.7529486490580488e-07   6.2492831007853873e-07   7.9437250791318143e-07   7.3916180084368502e-07   9.2249497559038635e-07   8.6256174365462628e-07   1.0593560283742663e-06   9.9483308903931679e-07   1.2046285513695842e-06   1.1356595925127736e-06   1.3579653417979323e-06   1.2847045758810391e-06   1.5189999447998869e-06   1.4416117377287584e-06   1.6873475355590808e-06   1.6060060111377558e-06   1.8626058456190156e-06   1.7774944665549213e-06   2.0443561311480923e-06   1.9556672576249831e-06   2.2321641808085612e-06   2.1400986077029490e-06   2.4255813607930455e-06   2.3303478346524627e-06   2.6241456944924293e-06   2.5259604114565979e-06   2.8273829741888880e-06   2.7264690600635513e-06   3.0348079020721454e-06   2.9313948758276839e-06   3.2459252578284585e-06   3.1402484798228521e-06   3.4602310899637896e-06   3.3525311962270834e-06   3.6772139279802928e-06   3.5677362519445960e-06   3.8963560124674815e-06   3.7853499955391358e-06   4.1171345401340839e-06   4.0048531325450329e-06   4.3390229207523698e-06   4.2257219741460288e-06   4.5614920429810403e-06   4.4474296962127646e-06   4.7840115459867994e-06   4.6694476056267158e-06   5.0060510937888381e-06   4.8912464108402502e-06   5.2270816492355337e-06   5.1122974935788745e-06   5.4465767445134180e-06   5.3320741786057466e-06   5.6640137451156383e-06   5.5500529984631868e-06   5.8788751041975595e-06   5.7657149501249237e-06   6.0906496042671734e-06   5.9785467405035189e-06   6.2988335831954436e-06   6.1880420177855631e-06   6.5029321415655661e-06   6.3937025855987352e-06   6.7024603284143684e-06   6.5950395970521018e-06   6.8969443024808834e-06   6.7915747257452848e-06   7.0859224661135195e-06   6.9828413108709248e-06   7.2689465690779116e-06   7.1683854736216917e-06   7.4455827795259014e-06   7.3477672021497161e-06   7.6154127195106034e-06   7.5205614024038535e-06   7.7780344624566471e-06   7.6863589122362695e-06   7.9330634900937401e-06   7.8447674762411605e-06   8.0801336064276120e-06   7.9954126788492049e-06   8.2188978063780021e-06   8.1379388332673670e-06   8.3490290967742141e-06   8.2720098239058470e-06   8.4702212674232293e-06   8.3973098999437392e-06   8.5821896099448039e-06   8.5135444176837703e-06   8.6846715819833029e-06   8.6204405292353223e-06   8.7774274141800976e-06   8.7177478148502114e-06   8.8602406568168383e-06   8.8052388557511954e-06   8.9329186621145771e-06   8.8827097433619253e-06   8.9952929963086652e-06   8.9499805189822801e-06   9.0472197717890055e-06   9.0068955341229470e-06   9.0885798812537243e-06   9.0533237134380737e-06   9.1192790962523214e-06   9.0891586829436574e-06   9.1392479448536660e-06   9.1143186800667218e-06   9.1484411996863919e-06   9.1287460855877483e-06   9.1108107318992061e-06   9.1002584906208497e-06   9.0896069096375826e-06   9.0843256597988440e-06   9.0577688913263523e-06   9.0577688913263354e-06   9.0153687695499859e-06   9.0206477605954219e-06   8.9625017814607459e-06   8.9730449649627533e-06   8.8992873981109849e-06   8.9150674487067982e-06   8.8258695555924083e-06   8.8468466661464836e-06   8.7424165406690279e-06   8.7685384984493142e-06   8.6491207036980095e-06   8.6803229973625716e-06   8.5461980618404990e-06   8.5824040189074342e-06   8.4338878195584969e-06   8.4750087739775562e-06   8.3124518197420282e-06   8.3583873091585204e-06   8.1821739329135844e-06   8.2328119251147553e-06   8.0433593890892662e-06   8.0985765370786010e-06   7.8963340555877135e-06   7.9559959806503917e-06   7.7414436634184502e-06   7.8054052654785116e-06   7.5790529846264847e-06   7.6471587791278392e-06   7.4095449628603163e-06   7.4816294433365218e-06   7.2333197994218582e-06   7.3092078248663799e-06   7.0507939971123374e-06   7.1303012031889785e-06   6.8623993642374940e-06   6.9453325973217885e-06   6.6685819812135435e-06   6.7547397541997167e-06   6.4698011323019966e-06   6.5589741010533362e-06   6.2665282050625955e-06   6.3584996643393331e-06   6.0592455602057676e-06   6.1537919578503573e-06   5.8484453745803305e-06   5.9453368427079240e-06   5.6346284600995591e-06   5.7336293619841648e-06   5.4183030614752882e-06   5.5191725528025061e-06   5.1999836356661188e-06   5.3024762387753943e-06   4.9801896160020530e-06   5.0840558057139868e-06   4.7594441639759284e-06   4.8644309635790996e-06   4.5382729117270405e-06   4.6441244976644342e-06   4.3172026982631759e-06   4.4236610120458263e-06   4.0967603024839460e-06   4.2035656683355964e-06   3.8774711760717236e-06   3.9843629228009911e-06   3.6598581793170956e-06   3.7665752649028132e-06   3.4444403229477117e-06   3.5507219603112437e-06   3.2317315190036816e-06   3.3373178014437012e-06   3.0222393437764172e-06   3.1268718685498206e-06   2.8164638158258781e-06   2.9198863043472514e-06   2.6148961920110842e-06   2.7168551051664812e-06   2.4180177844721888e-06   2.5182629315466814e-06   2.2262988014074241e-06   2.3245839411505680e-06   2.0401972144669119e-06   2.1362806468239831e-06   1.8601576554962252e-06   1.9538028025765224e-06   1.6866103453072602e-06   1.7775863201656547e-06   1.5199700570572247e-06   1.6080522189183224e-06   1.3606351167598930e-06   1.4456056113248843e-06   1.2089864433393178e-06   1.2906347268643962e-06   1.0653866305464034e-06   1.1435099764237705e-06   9.3017907297071670e-07   1.0045830595745873e-06   8.0368713825020481e-07   8.7418611686636866e-07   6.8621338748990083e-07   7.5263092919260636e-07   5.7803884577767069e-07   6.4020816616202025e-07   4.7942232455025410e-07   5.3718668529861172e-07   3.9059979746281162e-07   4.4381288375868405e-07   3.1178383126526004e-07   3.6031010414636484e-07   2.4316307305967622e-07   2.8687809585222559e-07   1.8490179518844188e-07   2.2369253322482509e-07   1.3713949884209753e-07   1.7090459174380568e-07   9.9990577355890289e-08   1.2864058321192872e-07   7.3544040004741836e-08   9.7001650856441999e-08   5.7863296964634904e-08   7.6063525073534010e-08   5.2986005960918976e-08   6.5876340407981151e-08   5.8923980976643843e-08   6.6464514210111595e-08   7.5663163238312683e-08   7.7826687265320248e-08   1.0316365455063433e-07   9.9935726538868783e-08   1.4135981289914770e-07   1.3273879002844846e-07   1.9016041009018107e-07   1.7615745356948538e-07   2.4944885104463405e-07   2.3008789928512364e-07   3.1908345421704262e-07   2.9440116522649183e-07   3.9889779246009532e-07   3.6894345559737656e-07   4.8870109350913850e-07   4.5353651081411102e-07   5.8827869911920471e-07   5.4797803650611048e-07   6.9739258174199342e-07   6.5204219041604290e-07   8.1578191749416689e-07   7.6548012602605773e-07   9.4316371402726558e-07   8.8802059159187386e-07   1.0792334917847847e-06   1.0193705831342632e-06   1.2236660169911118e-06   1.1592160498107934e-06   1.3761160846068643e-06   1.3072226499610743e-06   1.5362193493453061e-06   1.4630365559911052e-06   1.7035932027493760e-06   1.6262853061563494e-06   1.8778376941980877e-06   1.7965787011732953e-06   2.0585364936154435e-06   1.9735097434982321e-06   2.2452578935553139e-06   2.1566556169961336e-06   2.4375558482289980e-06   2.3455787046226030e-06   2.6349710469687825e-06   2.5398276416663138e-06   2.8370320195179745e-06   2.7389384019940266e-06   3.0432562704797172e-06   2.9424354146686808e-06   3.2531514401772159e-06   3.1498327082412820e-06   3.4662164891036048e-06   3.3606350799446750e-06   3.6819429031087046e-06   3.5743392869465985e-06   3.8998159163853551e-06   3.7904352567969116e-06   4.1193157493095278e-06   4.0084073141167589e-06   4.3399188581190024e-06   4.2277354205721669e-06   4.5610991934183616e-06   4.4478964251141032e-06   4.7823294644397279e-06   4.6683653214679585e-06   5.0030824060132717e-06   4.8886165098128524e-06   5.2228320451630186e-06   5.1081250595978441e-06   5.4410549642594953e-06   5.3263679704295152e-06   5.6572315576605093e-06   5.5428254279689774e-06   5.8708472787940802e-06   5.7569820517952152e-06   6.0813938746512611e-06   5.9683281321991511e-06   6.2883706046884009e-06   6.1763608529045293e-06   6.4912854411740289e-06   6.3805854967385241e-06   6.6896562480575849e-06   6.5805166313261210e-06   6.8830119354926545e-06   6.7756792719086784e-06   7.0708935871814870e-06   6.9656100184495038e-06   7.2528555577993603e-06   7.1498581642520069e-06   7.4284665377965635e-06   7.3279867733636204e-06   7.5973105829576272e-06   7.4995737241163223e-06   7.7589881061709910e-06   7.6642127162234433e-06   7.9131168289371803e-06   7.8215142389181327e-06   8.0593326902151005e-06   7.9711064977000380e-06   8.1972907102812139e-06   8.1126362973197938e-06   8.3266658073460134e-06   8.2457698786924436e-06   8.4471535647073427e-06   8.3701937074820389e-06   8.5584709462591495e-06   8.4856152121109006e-06   8.6603569581331553e-06   8.5917634689275262e-06   8.7525732541602599e-06   8.6883898321549487e-06   8.8349046825770858e-06   8.7752685059959694e-06   8.9071597709033975e-06   8.8521970557638058e-06   8.9691711449074416e-06   8.9189968539206104e-06   9.0207958755912049e-06   8.9755134549664237e-06   9.0619157443206781e-06   9.0216168894246683e-06   9.0924374099722600e-06   9.0572018612338389e-06   9.1122924609651425e-06   9.0821878325786387e-06   9.1214374064961207e-06   9.0965190529326529e-06   9.0732088456036469e-06   9.0574152473303173e-06   9.0522038054251941e-06   9.0416561281954057e-06   9.0206477605953779e-06   9.0153687695499148e-06   8.9786121343710522e-06   8.9786121343710149e-06   8.9261918385261426e-06   8.9314686182410269e-06   8.8635058431301255e-06   8.8740446554383539e-06   8.7906973168188390e-06   8.8064708920066214e-06   8.7079335078698882e-06   8.7289020984702288e-06   8.6154054695750210e-06   8.6415169263776937e-06   8.5133276787532563e-06   8.5445175576590036e-06   8.4019375710174845e-06   8.4381292704059264e-06   8.2814950052520870e-06   8.3225999334847801e-06   8.1522816646889337e-06   8.1981994373064219e-06   8.0146003994663007e-06   8.0652190655810268e-06   7.86877451