<?xml version="1.0"?>
<VTKFile type="UnstructuredGrid"  version="0.1"  >
<UnstructuredGrid>
<Piece  NumberOfPoints="16641" NumberOfCells="32768">
<Points>
<DataArray  type="Float64"  NumberOfComponents="3"  format="ascii">0 0 0  0.0078125 0 0  0.015625 0 0  0.0234375 0 0  0.03125 0 0  0.0390625 0 0  0.046875 0 0  0.0546875 0 0  0.0625 0 0  0.0703125 0 0  0.078125 0 0  0.0859375 0 0  0.09375 0 0  0.1015625 0 0  0.109375 0 0  0.1171875 0 0  0.125 0 0  0.1328125 0 0  0.140625 0 0  0.1484375 0 0  0.15625 0 0  0.1640625 0 0  0.171875 0 0  0.1796875 0 0  0.1875 0 0  0.1953125 0 0  0.203125 0 0  0.2109375 0 0  0.21875 0 0  0.2265625 0 0  0.234375 0 0  0.2421875 0 0  0.25 0 0  0.2578125 0 0  0.265625 0 0  0.2734375 0 0  0.28125 0 0  0.2890625 0 0  0.296875 0 0  0.3046875 0 0  0.3125 0 0  0.3203125 0 0  0.328125 0 0  0.3359375 0 0  0.34375 0 0  0.3515625 0 0  0.359375 0 0  0.3671875 0 0  0.375 0 0  0.3828125 0 0  0.390625 0 0  0.3984375 0 0  0.40625 0 0  0.4140625 0 0  0.421875 0 0  0.4296875 0 0  0.4375 0 0  0.4453125 0 0  0.453125 0 0  0.4609375 0 0  0.46875 0 0  0.4765625 0 0  0.484375 0 0  0.4921875 0 0  0.5 0 0  0.5078125 0 0  0.515625 0 0  0.5234375 0 0  0.53125 0 0  0.5390625 0 0  0.546875 0 0  0.5546875 0 0  0.5625 0 0  0.5703125 0 0  0.578125 0 0  0.5859375 0 0  0.59375 0 0  0.6015625 0 0  0.609375 0 0  0.6171875 0 0  0.625 0 0  0.6328125 0 0  0.640625 0 0  0.6484375 0 0  0.65625 0 0  0.6640625 0 0  0.671875 0 0  0.6796875 0 0  0.6875 0 0  0.6953125 0 0  0.703125 0 0  0.7109375 0 0  0.71875 0 0  0.7265625 0 0  0.734375 0 0  0.7421875 0 0  0.75 0 0  0.7578125 0 0  0.765625 0 0  0.7734375 0 0  0.78125 0 0  0.7890625 0 0  0.796875 0 0  0.8046875 0 0  0.8125 0 0  0.8203125 0 0  0.828125 0 0  0.8359375 0 0  0.84375 0 0  0.8515625 0 0  0.859375 0 0  0.8671875 0 0  0.875 0 0  0.8828125 0 0  0.890625 0 0  0.8984375 0 0  0.90625 0 0  0.9140625 0 0  0.921875 0 0  0.9296875 0 0  0.9375 0 0  0.9453125 0 0  0.953125 0 0  0.9609375 0 0  0.96875 0 0  0.9765625 0 0  0.984375 0 0  0.9921875 0 0  1 0 0  0 0.0078125 0  0.0078125 0.0078125 0  0.015625 0.0078125 0  0.0234375 0.0078125 0  0.03125 0.0078125 0  0.0390625 0.0078125 0  0.046875 0.0078125 0  0.0546875 0.0078125 0  0.0625 0.0078125 0  0.0703125 0.0078125 0  0.078125 0.0078125 0  0.0859375 0.0078125 0  0.09375 0.0078125 0  0.1015625 0.0078125 0  0.109375 0.0078125 0  0.1171875 0.0078125 0  0.125 0.0078125 0  0.1328125 0.0078125 0  0.140625 0.0078125 0  0.1484375 0.0078125 0  0.15625 0.0078125 0  0.1640625 0.0078125 0  0.171875 0.0078125 0  0.1796875 0.0078125 0  0.1875 0.0078125 0  0.1953125 0.0078125 0  0.203125 0.0078125 0  0.2109375 0.0078125 0  0.21875 0.0078125 0  0.2265625 0.0078125 0  0.234375 0.0078125 0  0.2421875 0.0078125 0  0.25 0.0078125 0  0.2578125 0.0078125 0  0.265625 0.0078125 0  0.2734375 0.0078125 0  0.28125 0.0078125 0  0.2890625 0.0078125 0  0.296875 0.0078125 0  0.3046875 0.0078125 0  0.3125 0.0078125 0  0.3203125 0.0078125 0  0.328125 0.0078125 0  0.3359375 0.0078125 0  0.34375 0.0078125 0  0.3515625 0.0078125 0  0.359375 0.0078125 0  0.3671875 0.0078125 0  0.375 0.0078125 0  0.3828125 0.0078125 0  0.390625 0.0078125 0  0.3984375 0.0078125 0  0.40625 0.0078125 0  0.4140625 0.0078125 0  0.421875 0.0078125 0  0.4296875 0.0078125 0  0.4375 0.0078125 0  0.4453125 0.0078125 0  0.453125 0.0078125 0  0.4609375 0.0078125 0  0.46875 0.0078125 0  0.4765625 0.0078125 0  0.484375 0.0078125 0  0.4921875 0.0078125 0  0.5 0.0078125 0  0.5078125 0.0078125 0  0.515625 0.0078125 0  0.5234375 0.0078125 0  0.53125 0.0078125 0  0.5390625 0.0078125 0  0.546875 0.0078125 0  0.5546875 0.0078125 0  0.5625 0.0078125 0  0.5703125 0.0078125 0  0.578125 0.0078125 0  0.5859375 0.0078125 0  0.59375 0.0078125 0  0.6015625 0.0078125 0  0.609375 0.0078125 0  0.6171875 0.0078125 0  0.625 0.0078125 0  0.6328125 0.0078125 0  0.640625 0.0078125 0  0.6484375 0.0078125 0  0.65625 0.0078125 0  0.6640625 0.0078125 0  0.671875 0.0078125 0  0.6796875 0.0078125 0  0.6875 0.0078125 0  0.6953125 0.0078125 0  0.703125 0.0078125 0  0.7109375 0.0078125 0  0.71875 0.0078125 0  0.7265625 0.0078125 0  0.734375 0.0078125 0  0.7421875 0.0078125 0  0.75 0.0078125 0  0.7578125 0.0078125 0  0.765625 0.0078125 0  0.7734375 0.0078125 0  0.78125 0.0078125 0  0.7890625 0.0078125 0  0.796875 0.0078125 0  0.8046875 0.0078125 0  0.8125 0.0078125 0  0.8203125 0.0078125 0  0.828125 0.0078125 0  0.8359375 0.0078125 0  0.84375 0.0078125 0  0.8515625 0.0078125 0  0.859375 0.0078125 0  0.8671875 0.0078125 0  0.875 0.0078125 0  0.8828125 0.0078125 0  0.890625 0.0078125 0  0.8984375 0.0078125 0  0.90625 0.0078125 0  0.9140625 0.0078125 0  0.921875 0.0078125 0  0.9296875 0.0078125 0  0.9375 0.0078125 0  0.9453125 0.0078125 0  0.953125 0.0078125 0  0.9609375 0.0078125 0  0.96875 0.0078125 0  0.9765625 0.0078125 0  0.984375 0.0078125 0  0.9921875 0.0078125 0  1 0.0078125 0  0 0.015625 0  0.0078125 0.015625 0  0.015625 0.015625 0  0.0234375 0.015625 0  0.03125 0.015625 0  0.0390625 0.015625 0  0.046875 0.015625 0  0.0546875 0.015625 0  0.0625 0.015625 0  0.0703125 0.015625 0  0.078125 0.015625 0  0.0859375 0.015625 0  0.09375 0.015625 0  0.1015625 0.015625 0  0.109375 0.015625 0  0.1171875 0.015625 0  0.125 0.015625 0  0.1328125 0.015625 0  0.140625 0.015625 0  0.1484375 0.015625 0  0.15625 0.015625 0  0.1640625 0.015625 0  0.171875 0.015625 0  0.1796875 0.015625 0  0.1875 0.015625 0  0.1953125 0.015625 0  0.203125 0.015625 0  0.2109375 0.015625 0  0.21875 0.015625 0  0.2265625 0.015625 0  0.234375 0.015625 0  0.2421875 0.015625 0  0.25 0.015625 0  0.2578125 0.015625 0  0.265625 0.015625 0  0.2734375 0.015625 0  0.28125 0.015625 0  0.2890625 0.015625 0  0.296875 0.015625 0  0.3046875 0.015625 0  0.3125 0.015625 0  0.3203125 0.015625 0  0.328125 0.015625 0  0.3359375 0.015625 0  0.34375 0.015625 0  0.3515625 0.015625 0  0.359375 0.015625 0  0.3671875 0.015625 0  0.375 0.015625 0  0.3828125 0.015625 0  0.390625 0.015625 0  0.3984375 0.015625 0  0.40625 0.015625 0  0.4140625 0.015625 0  0.421875 0.015625 0  0.4296875 0.015625 0  0.4375 0.015625 0  0.4453125 0.015625 0  0.453125 0.015625 0  0.4609375 0.015625 0  0.46875 0.015625 0  0.4765625 0.015625 0  0.484375 0.015625 0  0.4921875 0.015625 0  0.5 0.015625 0  0.5078125 0.015625 0  0.515625 0.015625 0  0.5234375 0.015625 0  0.53125 0.015625 0  0.5390625 0.015625 0  0.546875 0.015625 0  0.5546875 0.015625 0  0.5625 0.015625 0  0.5703125 0.015625 0  0.578125 0.015625 0  0.5859375 0.015625 0  0.59375 0.015625 0  0.6015625 0.015625 0  0.609375 0.015625 0  0.6171875 0.015625 0  0.625 0.015625 0  0.6328125 0.015625 0  0.640625 0.015625 0  0.6484375 0.015625 0  0.65625 0.015625 0  0.6640625 0.015625 0  0.671875 0.015625 0  0.6796875 0.015625 0  0.6875 0.015625 0  0.6953125 0.015625 0  0.703125 0.015625 0  0.7109375 0.015625 0  0.71875 0.015625 0  0.7265625 0.015625 0  0.734375 0.015625 0  0.7421875 0.015625 0  0.75 0.015625 0  0.7578125 0.015625 0  0.765625 0.015625 0  0.7734375 0.015625 0  0.78125 0.015625 0  0.7890625 0.015625 0  0.796875 0.015625 0  0.8046875 0.015625 0  0.8125 0.015625 0  0.8203125 0.015625 0  0.828125 0.015625 0  0.8359375 0.015625 0  0.84375 0.015625 0  0.8515625 0.015625 0  0.859375 0.015625 0  0.8671875 0.015625 0  0.875 0.015625 0  0.8828125 0.015625 0  0.890625 0.015625 0  0.8984375 0.015625 0  0.90625 0.015625 0  0.9140625 0.015625 0  0.921875 0.015625 0  0.9296875 0.015625 0  0.9375 0.015625 0  0.9453125 0.015625 0  0.953125 0.015625 0  0.9609375 0.015625 0  0.96875 0.015625 0  0.9765625 0.015625 0  0.984375 0.015625 0  0.9921875 0.015625 0  1 0.015625 0  0 0.0234375 0  0.0078125 0.0234375 0  0.015625 0.0234375 0  0.0234375 0.0234375 0  0.03125 0.0234375 0  0.0390625 0.0234375 0  0.046875 0.0234375 0  0.0546875 0.0234375 0  0.0625 0.0234375 0  0.0703125 0.0234375 0  0.078125 0.0234375 0  0.0859375 0.0234375 0  0.09375 0.0234375 0  0.1015625 0.0234375 0  0.109375 0.0234375 0  0.1171875 0.0234375 0  0.125 0.0234375 0  0.1328125 0.0234375 0  0.140625 0.0234375 0  0.1484375 0.0234375 0  0.15625 0.0234375 0  0.1640625 0.0234375 0  0.171875 0.0234375 0  0.1796875 0.0234375 0  0.1875 0.0234375 0  0.1953125 0.0234375 0  0.203125 0.0234375 0  0.2109375 0.0234375 0  0.21875 0.0234375 0  0.2265625 0.0234375 0  0.234375 0.0234375 0  0.2421875 0.0234375 0  0.25 0.0234375 0  0.2578125 0.0234375 0  0.265625 0.0234375 0  0.2734375 0.0234375 0  0.28125 0.0234375 0  0.2890625 0.0234375 0  0.296875 0.0234375 0  0.3046875 0.0234375 0  0.3125 0.0234375 0  0.3203125 0.0234375 0  0.328125 0.0234375 0  0.3359375 0.0234375 0  0.34375 0.0234375 0  0.3515625 0.0234375 0  0.359375 0.0234375 0  0.3671875 0.0234375 0  0.375 0.0234375 0  0.3828125 0.0234375 0  0.390625 0.0234375 0  0.3984375 0.0234375 0  0.40625 0.0234375 0  0.4140625 0.0234375 0  0.421875 0.0234375 0  0.4296875 0.0234375 0  0.4375 0.0234375 0  0.4453125 0.0234375 0  0.453125 0.0234375 0  0.4609375 0.0234375 0  0.46875 0.0234375 0  0.4765625 0.0234375 0  0.484375 0.0234375 0  0.4921875 0.0234375 0  0.5 0.0234375 0  0.5078125 0.0234375 0  0.515625 0.0234375 0  0.5234375 0.0234375 0  0.53125 0.0234375 0  0.5390625 0.0234375 0  0.546875 0.0234375 0  0.5546875 0.0234375 0  0.5625 0.0234375 0  0.5703125 0.0234375 0  0.578125 0.0234375 0  0.5859375 0.0234375 0  0.59375 0.0234375 0  0.6015625 0.0234375 0  0.609375 0.0234375 0  0.6171875 0.0234375 0  0.625 0.0234375 0  0.6328125 0.0234375 0  0.640625 0.0234375 0  0.6484375 0.0234375 0  0.65625 0.0234375 0  0.6640625 0.0234375 0  0.671875 0.0234375 0  0.6796875 0.0234375 0  0.6875 0.0234375 0  0.6953125 0.0234375 0  0.703125 0.0234375 0  0.7109375 0.0234375 0  0.71875 0.0234375 0  0.7265625 0.0234375 0  0.734375 0.0234375 0  0.7421875 0.0234375 0  0.75 0.0234375 0  0.7578125 0.0234375 0  0.765625 0.0234375 0  0.7734375 0.0234375 0  0.78125 0.0234375 0  0.7890625 0.0234375 0  0.796875 0.0234375 0  0.8046875 0.0234375 0  0.8125 0.0234375 0  0.8203125 0.0234375 0  0.828125 0.0234375 0  0.8359375 0.0234375 0  0.84375 0.0234375 0  0.8515625 0.0234375 0  0.859375 0.0234375 0  0.8671
[...]
<PointData  Vectors="f_16746-0"> 
<DataArray  type="Float64"  Name="f_16746-0"  NumberOfComponents="3" format="ascii">0.0000000000000000e+00 0.0000000000000000e+00 0.0000000000000000e+00  0.0000000000000000e+00 1.2236368494466459e-15 0.0000000000000000e+00  0.0000000000000000e+00 2.4465366258099140e-15 0.0000000000000000e+00  0.0000000000000000e+00 3.6679626999916910e-15 0.0000000000000000e+00  0.0000000000000000e+00 4.8871793305969531e-15 0.0000000000000000e+00  0.0000000000000000e+00 6.1034521071168670e-15 0.0000000000000000e+00  0.0000000000000000e+00 7.3160483923102302e-15 0.0000000000000000e+00  0.0000000000000000e+00 8.5242377635167327e-15 0.0000000000000000e+00  0.0000000000000000e+00 9.7272924526362752e-15 0.0000000000000000e+00  0.0000000000000000e+00 1.0924487784509243e-14 0.0000000000000000e+00  0.0000000000000000e+00 1.2115102613433730e-14 0.0000000000000000e+00  0.0000000000000000e+00 1.3298419757556748e-14 0.0000000000000000e+00  0.0000000000000000e+00 1.4473726430877756e-14 0.0000000000000000e+00  0.0000000000000000e+00 1.5640314672604303e-14 0.0000000000000000e+00  0.0000000000000000e+00 1.6797481773601099e-14 0.0000000000000000e+00  0.0000000000000000e+00 1.7944530699675777e-14 0.0000000000000000e+00  0.0000000000000000e+00 1.9080770511446194e-14 0.0000000000000000e+00  0.0000000000000000e+00 2.0205516780536478e-14 0.0000000000000000e+00  0.0000000000000000e+00 2.1318092001851100e-14 0.0000000000000000e+00  0.0000000000000000e+00 2.2417826001678618e-14 0.0000000000000000e+00  0.0000000000000000e+00 2.3504056341379228e-14 0.0000000000000000e+00  0.0000000000000000e+00 2.4576128716413069e-14 0.0000000000000000e+00  0.0000000000000000e+00 2.5633397350468778e-14 0.0000000000000000e+00  0.0000000000000000e+00 2.6675225384455033e-14 0.0000000000000000e+00  0.0000000000000000e+00 2.7700985260120614e-14 0.0000000000000000e+00  0.0000000000000000e+00 2.8710059098072059e-14 0.0000000000000000e+00  0.0000000000000000e+00 2.9701839069961075e-14 0.0000000000000000e+00  0.0000000000000000e+00 3.0675727764617645e-14 0.0000000000000000e+00  0.0000000000000000e+00 3.1631138547908148e-14 0.0000000000000000e+00  0.0000000000000000e+00 3.2567495916101850e-14 0.0000000000000000e+00  0.0000000000000000e+00 3.3484235842532793e-14 0.0000000000000000e+00  0.0000000000000000e+00 3.4380806117348425e-14 0.0000000000000000e+00  0.0000000000000000e+00 3.5256666680140114e-14 0.0000000000000000e+00  0.0000000000000000e+00 3.6111289945255355e-14 0.0000000000000000e+00  0.0000000000000000e+00 3.6944161119595687e-14 0.0000000000000000e+00  0.0000000000000000e+00 3.7754778512708730e-14 0.0000000000000000e+00  0.0000000000000000e+00 3.8542653838987823e-14 0.0000000000000000e+00  0.0000000000000000e+00 3.9307312511796960e-14 0.0000000000000000e+00  0.0000000000000000e+00 4.0048293929344072e-14 0.0000000000000000e+00  0.0000000000000000e+00 4.0765151752130319e-14 0.0000000000000000e+00  0.0000000000000000e+00 4.1457454171808293e-14 0.0000000000000000e+00  0.0000000000000000e+00 4.2124784171287209e-14 0.0000000000000000e+00  0.0000000000000000e+00 4.2766739775928481e-14 0.0000000000000000e+00  0.0000000000000000e+00 4.3382934295680146e-14 0.0000000000000000e+00  0.0000000000000000e+00 4.3972996558004483e-14 0.0000000000000000e+00  0.0000000000000000e+00 4.4536571131458537e-14 0.0000000000000000e+00  0.0000000000000000e+00 4.5073318539792646e-14 0.0000000000000000e+00  0.0000000000000000e+00 4.5582915466438325e-14 0.0000000000000000e+00  0.0000000000000000e+00 4.6065054949262019e-14 0.0000000000000000e+00  0.0000000000000000e+00 4.6519446565467619e-14 0.0000000000000000e+00  0.0000000000000000e+00 4.6945816606536344e-14 0.0000000000000000e+00  0.0000000000000000e+00 4.7343908243098419e-14 0.0000000000000000e+00  0.0000000000000000e+00 4.7713481679637620e-14 0.0000000000000000e+00  0.0000000000000000e+00 4.8054314298934991e-14 0.0000000000000000e+00  0.0000000000000000e+00 4.8366200796165236e-14 0.0000000000000000e+00  0.0000000000000000e+00 4.8648953302564614e-14 0.0000000000000000e+00  0.0000000000000000e+00 4.8902401498596047e-14 0.0000000000000000e+00  0.0000000000000000e+00 4.9126392716543307e-14 0.0000000000000000e+00  0.0000000000000000e+00 4.9320792032472255e-14 0.0000000000000000e+00  0.0000000000000000e+00 4.9485482347504044e-14 0.0000000000000000e+00  0.0000000000000000e+00 4.9620364458351061e-14 0.0000000000000000e+00  0.0000000000000000e+00 4.9725357117073310e-14 0.0000000000000000e+00  0.0000000000000000e+00 4.9800397080019095e-14 0.0000000000000000e+00  0.0000000000000000e+00 4.9845439145920667e-14 0.0000000000000000e+00  0.0000000000000000e+00 4.9860456183121748e-14 0.0000000000000000e+00  -0.0000000000000000e+00 4.9845439145920667e-14 0.0000000000000000e+00  -0.0000000000000000e+00 4.9800397080019095e-14 0.0000000000000000e+00  -0.0000000000000000e+00 4.9725357117073310e-14 0.0000000000000000e+00  -0.0000000000000000e+00 4.9620364458351068e-14 0.0000000000000000e+00  -0.0000000000000000e+00 4.9485482347504044e-14 0.0000000000000000e+00  -0.0000000000000000e+00 4.9320792032472255e-14 0.0000000000000000e+00  -0.0000000000000000e+00 4.9126392716543307e-14 0.0000000000000000e+00  -0.0000000000000000e+00 4.8902401498596047e-14 0.0000000000000000e+00  -0.0000000000000000e+00 4.8648953302564614e-14 0.0000000000000000e+00  -0.0000000000000000e+00 4.8366200796165236e-14 0.0000000000000000e+00  -0.0000000000000000e+00 4.8054314298934991e-14 0.0000000000000000e+00  -0.0000000000000000e+00 4.7713481679637620e-14 0.0000000000000000e+00  -0.0000000000000000e+00 4.7343908243098419e-14 0.0000000000000000e+00  -0.0000000000000000e+00 4.6945816606536344e-14 0.0000000000000000e+00  -0.0000000000000000e+00 4.6519446565467619e-14 0.0000000000000000e+00  -0.0000000000000000e+00 4.6065054949262019e-14 0.0000000000000000e+00  -0.0000000000000000e+00 4.5582915466438325e-14 0.0000000000000000e+00  -0.0000000000000000e+00 4.5073318539792652e-14 0.0000000000000000e+00  -0.0000000000000000e+00 4.4536571131458530e-14 0.0000000000000000e+00  -0.0000000000000000e+00 4.3972996558004495e-14 0.0000000000000000e+00  -0.0000000000000000e+00 4.3382934295680153e-14 0.0000000000000000e+00  -0.0000000000000000e+00 4.2766739775928481e-14 0.0000000000000000e+00  -0.0000000000000000e+00 4.2124784171287216e-14 0.0000000000000000e+00  -0.0000000000000000e+00 4.1457454171808293e-14 0.0000000000000000e+00  -0.0000000000000000e+00 4.0765151752130319e-14 0.0000000000000000e+00  -0.0000000000000000e+00 4.0048293929344078e-14 0.0000000000000000e+00  -0.0000000000000000e+00 3.9307312511796966e-14 0.0000000000000000e+00  -0.0000000000000000e+00 3.8542653838987829e-14 0.0000000000000000e+00  -0.0000000000000000e+00 3.7754778512708743e-14 0.0000000000000000e+00  -0.0000000000000000e+00 3.6944161119595674e-14 0.0000000000000000e+00  -0.0000000000000000e+00 3.6111289945255355e-14 0.0000000000000000e+00  -0.0000000000000000e+00 3.5256666680140114e-14 0.0000000000000000e+00  -0.0000000000000000e+00 3.4380806117348431e-14 0.0000000000000000e+00  -0.0000000000000000e+00 3.3484235842532806e-14 0.0000000000000000e+00  -0.0000000000000000e+00 3.2567495916101844e-14 0.0000000000000000e+00  -0.0000000000000000e+00 3.1631138547908148e-14 0.0000000000000000e+00  -0.0000000000000000e+00 3.0675727764617645e-14 0.0000000000000000e+00  -0.0000000000000000e+00 2.9701839069961082e-14 0.0000000000000000e+00  -0.0000000000000000e+00 2.8710059098072065e-14 0.0000000000000000e+00  -0.0000000000000000e+00 2.7700985260120614e-14 0.0000000000000000e+00  -0.0000000000000000e+00 2.6675225384455033e-14 0.0000000000000000e+00  -0.0000000000000000e+00 2.5633397350468781e-14 0.0000000000000000e+00  -0.0000000000000000e+00 2.4576128716413072e-14 0.0000000000000000e+00  -0.0000000000000000e+00 2.3504056341379241e-14 0.0000000000000000e+00  -0.0000000000000000e+00 2.2417826001678631e-14 0.0000000000000000e+00  -0.0000000000000000e+00 2.1318092001851100e-14 0.0000000000000000e+00  -0.0000000000000000e+00 2.0205516780536481e-14 0.0000000000000000e+00  -0.0000000000000000e+00 1.9080770511446201e-14 0.0000000000000000e+00  -0.0000000000000000e+00 1.7944530699675790e-14 0.0000000000000000e+00  -0.0000000000000000e+00 1.6797481773601111e-14 0.0000000000000000e+00  -0.0000000000000000e+00 1.5640314672604297e-14 0.0000000000000000e+00  -0.0000000000000000e+00 1.4473726430877759e-14 0.0000000000000000e+00  -0.0000000000000000e+00 1.3298419757556752e-14 0.0000000000000000e+00  -0.0000000000000000e+00 1.2115102613433737e-14 0.0000000000000000e+00  -0.0000000000000000e+00 1.0924487784509254e-14 0.0000000000000000e+00  -0.0000000000000000e+00 9.7272924526362926e-15 0.0000000000000000e+00  -0.0000000000000000e+00 8.5242377635167327e-15 0.0000000000000000e+00  -0.0000000000000000e+00 7.3160483923102317e-15 0.0000000000000000e+00  -0.0000000000000000e+00 6.1034521071168757e-15 0.0000000000000000e+00  -0.0000000000000000e+00 4.8871793305969626e-15 0.0000000000000000e+00  -0.0000000000000000e+00 3.6679626999917060e-15 0.0000000000000000e+00  -0.0000000000000000e+00 2.4465366258099116e-15 0.0000000000000000e+00  -0.0000000000000000e+00 1.2236368494466477e-15 0.0000000000000000e+00  -0.0000000000000000e+00 6.1061448068686908e-30 0.0000000000000000e+00  1.2236368494466459e-15 0.0000000000000000e+00 0.0000000000000000e+00  -1.2998871367541174e-07 -1.2997960444707825e-07 0.0000000000000000e+00  -2.0840751394325923e-07 -1.9205332616399841e-07 0.0000000000000000e+00  -2.6127445141076588e-07 -2.3254357232694400e-07 0.0000000000000000e+00  -3.0170663914694296e-07 -2.6351332024774092e-07 0.0000000000000000e+00  -3.3464408385368377e-07 -2.8907223436982161e-07 0.0000000000000000e+00  -3.6246122632235345e-07 -3.1108632109630448e-07 0.0000000000000000e+00  -3.8647814956861524e-07 -3.3056814002054278e-07 0.0000000000000000e+00  -4.0750018211642011e-07 -3.4813698320690713e-07 0.0000000000000000e+00  -4.2605242656614490e-07 -3.6420313819854065e-07 0.0000000000000000e+00  -4.4249493935245873e-07 -3.7905411278787086e-07 0.0000000000000000e+00  -4.5708453364834972e-07 -3.9289987760401714e-07 0.0000000000000000e+00  -4.7001033552184150e-07 -4.0589868075470088e-07 0.0000000000000000e+00  -4.8141542073439460e-07 -4.1817275114377645e-07 0.0000000000000000e+00  -4.9141059776987542e-07 -4.2981834872289001e-07 0.0000000000000000e+00  -5.0008352608154613e-07 -4.4091246884020459e-07 0.0000000000000000e+00  -5.0750494194203970e-07 -4.5151747163175369e-07 0.0000000000000000e+00  -5.1373302430169682e-07 -4.6168437343038313e-07 0.0000000000000000e+00  -5.1881652661723855e-07 -4.7145524631934437e-07 0.0000000000000000e+00  -5.2279706753023484e-07 -4.8086500597835061e-07 0.0000000000000000e+00  -5.2571083451788867e-07 -4.8994276940181241e-07 0.0000000000000000e+00  -5.2758986928951017e-07 -4.9871290348041506e-07 0.0000000000000000e+00  -5.2846304966861594e-07 -5.0719584705336430e-07 0.0000000000000000e+00  -5.2835684760577885e-07 -5.1540876406548401e-07 0.0000000000000000e+00  -5.2729591964586403e-07 -5.2336606882552846e-07 0.0000000000000000e+00  -5.2530357035356278e-07 -5.3107985303963877e-07 0.0000000000000000e+00  -5.2240211826894410e-07 -5.3856023643962067e-07 0.0000000000000000e+00  -5.1861318628174600e-07 -5.4581565728204415e-07 0.0000000000000000e+00  -5.1395793283000837e-07 -5.5285311501886766e-07 0.0000000000000000e+00  -5.0845723636024827e-07 -5.5967837454833390e-07 0.0000000000000000e+00  -5.0213184257695535e-07 -5.6629613932264888e-07 0.0000000000000000e+00  -4.9500248185072847e-07 -5.7271019899776424e-07 0.0000000000000000e+00  -4.8708996253543734e-07 -5.7892355610939662e-07 0.0000000000000000e+00  -4.7841524471817030e-07 -5.8493853534322519e-07 0.0000000000000000e+00  -4.6899949798757647e-07 -5.9075687826140240e-07 0.0000000000000000e+00  -4.5886414608240696e-07 -5.9637982579889723e-07 0.0000000000000000e+00  -4.4803090071913362e-07 -6.0180819041297161e-07 0.0000000000000000e+00  -4.3652178645635294e-07 -6.0704241942915221e-07 0.0000000000000000e+00  -4.2435915810548820e-07 -6.1208265085630551e-07 0.0000000000000000e+00  -4.1156571192068609e-07 -6.1692876272629731e-07 0.0000000000000000e+00  -3.9816449157974085e-07 -6.2158041683837184e-07 0.0000000000000000e+00  -3.8417888979014085e-07 -6.2603709764597477e-07 0.0000000000000000e+00  -3.6963264621067019e-07 -6.3029814690723695e-07 0.0000000000000000e+00  -3.5454984226230685e-07 -6.3436279462466969e-07 0.0000000000000000e+00  -3.3895489330692203e-07 -6.3823018672036796e-07 0.0000000000000000e+00  -3.2287253859421519e-07 -6.4189940982734306e-07 0.0000000000000000e+00  -3.0632782931311661e-07 -6.4536951352257300e-07 0.0000000000000000e+00  -2.8934611503074388e-07 -6.4863953028128710e-07 0.0000000000000000e+00  -2.7195302875802225e-07 -6.5170849339311809e-07 0.0000000000000000e+00  -2.5417447084445952e-07 -6.5457545304775820e-07 0.0000000000000000e+00  -2.3603659187408407e-07 -6.5723949076972015e-07 0.0000000000000000e+00  -2.1756577470897283e-07 -6.5969973235782239e-07 0.0000000000000000e+00  -1.9878861580538172e-07 -6.6195535946440723e-07 0.0000000000000000e+00  -1.7973190590954550e-07 -6.6400561993150497e-07 0.0000000000000000e+00  -1.6042261022509768e-07 -6.6584983698572547e-07 0.0000000000000000e+00  -1.4088784813129817e-07 -6.6748741738022298e-07 0.0000000000000000e+00  -1.2115487252057299e-07 -6.6891785856025400e-07 0.0000000000000000e+00  -1.0125104881481430e-07 -6.7014075491848068e-07 0.0000000000000000e+00  -8.1203833712338463e-08 -6.7115580319692225e-07 0.0000000000000000e+00  -6.1040753711023545e-08 -6.7196280708421790e-07 0.0000000000000000e+00  -4.0789383447870228e-08 -6.7256168104941351e-07 0.0000000000000000e+00  -2.0477323890847218e-08 -6.7295245344676886e-07 0.0000000000000000e+00  -1.3218041529781978e-10 -6.7313526891982917e-07 0.0000000000000000e+00  2.0218459205680068e-08 -6.7311039012730498e-07 0.0000000000000000e+00  4.0547046869667362e-08 -6.7287819880786620e-07 0.0000000000000000e+00  6.0826096246664897e-08 -6.7243919619586155e-07 0.0000000000000000e+00  8.1028204889684062e-08 -6.7179400279499158e-07 0.0000000000000000e+00  1.0112607633033119e-07 -6.7094335751214974e-07 0.0000000000000000e+00  1.2109254213564236e-07 -6.6988811614883567e-07 0.0000000000000000e+00  1.4090058390200527e-07 -6.6862924924271015e-07 0.0000000000000000e+00  1.6052335516106615e-07 -6.6716783924690021e-07 0.0000000000000000e+00  1.7993420317110835e-07 -6.6550507702953129e-07 0.0000000000000000e+00  1.9910669056530452e-07 -6.6364225767056990e-07 0.0000000000000000e+00  2.1801461682565139e-07 -6.6158077552729069e-07 0.0000000000000000e+00  2.3663203954800888e-07 -6.5932211853348555e-07 0.0000000000000000e+00  2.5493329545955768e-07 -6.5686786169075833e-07 0.0000000000000000e+00  2.7289302114496540e-07 -6.5421965970281677e-07 0.0000000000000000e+00  2.9048617343150626e-07 -6.5137923869542293e-07 0.0000000000000000e+00  3.0768804937615636e-07 -6.4834838695540369e-07 0.0000000000000000e+00  3.2447430578900462e-07 -6.4512894461172480e-07 0.0000000000000000e+00  3.4082097821706252e-07 -6.4172279216984410e-07 0.0000000000000000e+00  3.5670449930032053e-07 -6.3813183779710846e-07 0.0000000000000000e+00  3.7210171639730476e-07 -6.3435800324149950e-07 0.0000000000000000e+00  3.8698990836008375e-07 -6.3040320824830339e-07 0.0000000000000000e+00  4.0134680131797783e-07 -6.2626935331863256e-07 0.0000000000000000e+00  4.1515058330456018e-07 -6.2195830062985367e-07 0.0000000000000000e+00  4.2837991753295349e-07 -6.1747185290988118e-07 0.0000000000000000e+00  4.4101395408900876e-07 -6.1281173002448970e-07 0.0000000000000000e+00  4.5303233976924694e-07 -6.0797954299795267e-07 0.0000000000000000e+00  4.6441522573893372e-07 -6.0297676514138079e-07 0.0000000000000000e+00  4.7514327262324511e-07 -5.9780469990835339e-07 0.0000000000000000e+00  4.8519765256861140e-07 -5.9246444503196187e-07 0.0000000000000000e+00  4.9456004771864712e-07 -5.8695685241854600e-07 0.0000000000000000e+00  5.0321264443548232e-07 -5.8128248317818379e-07 0.0000000000000000e+00  5.1113812245733752e-07 -5.7544155705617036e-07 0.0000000000000000e+00  5.1831963800989288e-07 -5.6943389538811137e-07 0.0000000000000000e+00  5.2474079967329454e-07 -5.6325885652714165e-07 0.0000000000000000e+00  5.3038563553661392e-07 -5.5691526247611987e-07 0.0000000000000000e+00  5.3523854983142419e-07 -5.5040131518902171e-07 0.0000000000000000e+00  5.3928426680491642e-07 -5.4371450066851637e-07 0.0000000000000000e+00  5.4250775904239260e-07 -5.3685147856027604e-07 0.0000000000000000e+00  5.4489415674064894e-07 -5.2980795440099783e-07 0.0000000000000000e+00  5.4642863351517367e-07 -5.2257853097819931e-07 0.0000000000000000e+00  5.4709626312239522e-07 -5.1515653435310733e-07 0.0000000000000000e+00  5.4688183989136939e-07 -5.0753380890986663e-07 0.0000000000000000e+00  5.4576965354262567e-07 -4.9970047422125843e-07 0.0000000000000000e+00  5.4374320621740425e-07 -4.9164463441459288e-07 0.0000000000000000e+00  5.4078485564528091e-07 -4.8335202786591293e-07 0.0000000000000000e+00  5.3687536299367932e-07 -4.7480560112791651e-07 0.0000000000000000e+00  5.3199331639464848e-07 -4.6598498553024858e-07 0.0000000000000000e+00  5.2611439039918379e-07 -4.5686584715081491e-07 0.0000000000000000e+00  5.1921038605313228e-07 -4.4741906970746937e-07 0.0000000000000000e+00  5.1124797334436350e-07 -4.3760971354988964e-07 0.0000000000000000e+00  5.0218702322448763e-07 -4.2739566938483130e-07 0.0000000000000000e+00  4.9197836318476010e-07 -4.1672588768346269e-07 0.0000000000000000e+00  4.8056070622771875e-07 -4.0553800531978425e-07 0.0000000000000000e+00  4.6785636614143545e-07 -3.9375509453039905e-07 0.0000000000000000e+00  4.5376514161788816e-07 -3.8128109723993478e-07 0.0000000000000000e+00  4.3815534917701148e-07 -3.6799422471001375e-07 0.0000000000000000e+00  4.2085024953610977e-07 -3.5373708478574037e-07 0.0000000000000000e+00  4.0160669760980527e-07 -3.3830129917739967e-07 0.0000000000000000e+00  3.8007995442253348e-07 -3.2140230831769269e-07 0.0000000000000000e+00  3.5576224884633479e-07 -3.0263541947367763e-07 0.0000000000000000e+00  3.2786754672234136e-07 -2.8139251076764378e-07 0.0000000000000000e+00  2.9509557224822355e-07 -2.5668520831280692e-07 0.0000000000000000e+00  2.5509491011500300e-07 -2.2670562329243985e-07 0.0000000000000000e+00  2.0307503079504769e-07 -1.8748460890172888e-07 0.0000000000000000e+00  1.2764411541098949e-07 -1.2761796922733689e-07 0.0000000000000000e+00  -1.2236368494466459e-15 6.1043057502145928e-30 0.0000000000000000e+00  2.4465366258099140e-15 0.0000000000000000e+00 0.0000000000000000e+00  -1.9270433081082254e-07 -2.0823537591351529e-07 0.0000000000000000e+00  -3.3937473230602148e-07 -3.3761659687665005e-07 0.0000000000000000e+00  -4.5067099732931578e-07 -4.2656149186292973e-07 0.0000000000000000e+00  -5.3841750724580386e-07 -4.9398756878911322e-07 0.0000000000000000e+00  -6.1034790867487259e-07 -5.4865614144886210e-07 0.0000000000000000e+00  -6.7103965463910179e-07 -5.9499672272353183e-07 0.0000000000000000e+00  -7.2327631905964149e-07 -6.3548050568138952e-07 0.0000000000000000e+00  -7.6883884548556517e-07 -6.7161316291286196e-07 0.0000000000000000e+00  -8.0892076226159387e-07 -7.0437891466352023e-07 0.0000000000000000e+00  -8.4435396644405247e-07 -7.3445714533167819e-07 0.0000000000000000e+00  -8.7573780764144076e-07 -7.6233705180656164e-07 0.0000000000000000e+00  -9.0351644245826096e-07 -7.8838273799930364e-07 0.0000000000000000e+00  -9.2802717444795258e-07 -8.1287240657672360e-07 0.0000000000000000e+00  -9.4953179334738282e-07 -8.3602313784329625e-07 0.0000000000000000e+00  -9.6823755294818685e-07 -8.5800721318248721e-07 0.0000000000000000e+00  -9.8431160886169764e-07 -8.7896324985067451e-07 0.0000000000000000e+00  -9.9789119803874631e-07 -8.9900402677267741e-07 0.0000000000000000e+00  -1.0090909685303102e-06 -9.1822212870529359e-07 0.0000000000000000e+00  -1.0180083550461535e-06 -9.3669410978437377e-07 0.0000000000000000e+00  -1.0247275850580575e-06 -9.5448362635241762e-07 0.0000000000000000e+00  -1.0293227064620423e-06 -9.7164383595787422e-07 0.00000000