<?xml version="1.0"?>
<VTKFile type="UnstructuredGrid"  version="0.1"  >
<UnstructuredGrid>
<Piece  NumberOfPoints="16641" NumberOfCells="32768">
<Points>
<DataArray  type="Float64"  NumberOfComponents="3"  format="ascii">0 0 0  0.0078125 0 0  0.015625 0 0  0.0234375 0 0  0.03125 0 0  0.0390625 0 0  0.046875 0 0  0.0546875 0 0  0.0625 0 0  0.0703125 0 0  0.078125 0 0  0.0859375 0 0  0.09375 0 0  0.1015625 0 0  0.109375 0 0  0.1171875 0 0  0.125 0 0  0.1328125 0 0  0.140625 0 0  0.1484375 0 0  0.15625 0 0  0.1640625 0 0  0.171875 0 0  0.1796875 0 0  0.1875 0 0  0.1953125 0 0  0.203125 0 0  0.2109375 0 0  0.21875 0 0  0.2265625 0 0  0.234375 0 0  0.2421875 0 0  0.25 0 0  0.2578125 0 0  0.265625 0 0  0.2734375 0 0  0.28125 0 0  0.2890625 0 0  0.296875 0 0  0.3046875 0 0  0.3125 0 0  0.3203125 0 0  0.328125 0 0  0.3359375 0 0  0.34375 0 0  0.3515625 0 0  0.359375 0 0  0.3671875 0 0  0.375 0 0  0.3828125 0 0  0.390625 0 0  0.3984375 0 0  0.40625 0 0  0.4140625 0 0  0.421875 0 0  0.4296875 0 0  0.4375 0 0  0.4453125 0 0  0.453125 0 0  0.4609375 0 0  0.46875 0 0  0.4765625 0 0  0.484375 0 0  0.4921875 0 0  0.5 0 0  0.5078125 0 0  0.515625 0 0  0.5234375 0 0  0.53125 0 0  0.5390625 0 0  0.546875 0 0  0.5546875 0 0  0.5625 0 0  0.5703125 0 0  0.578125 0 0  0.5859375 0 0  0.59375 0 0  0.6015625 0 0  0.609375 0 0  0.6171875 0 0  0.625 0 0  0.6328125 0 0  0.640625 0 0  0.6484375 0 0  0.65625 0 0  0.6640625 0 0  0.671875 0 0  0.6796875 0 0  0.6875 0 0  0.6953125 0 0  0.703125 0 0  0.7109375 0 0  0.71875 0 0  0.7265625 0 0  0.734375 0 0  0.7421875 0 0  0.75 0 0  0.7578125 0 0  0.765625 0 0  0.7734375 0 0  0.78125 0 0  0.7890625 0 0  0.796875 0 0  0.8046875 0 0  0.8125 0 0  0.8203125 0 0  0.828125 0 0  0.8359375 0 0  0.84375 0 0  0.8515625 0 0  0.859375 0 0  0.8671875 0 0  0.875 0 0  0.8828125 0 0  0.890625 0 0  0.8984375 0 0  0.90625 0 0  0.9140625 0 0  0.921875 0 0  0.9296875 0 0  0.9375 0 0  0.9453125 0 0  0.953125 0 0  0.9609375 0 0  0.96875 0 0  0.9765625 0 0  0.984375 0 0  0.9921875 0 0  1 0 0  0 0.0078125 0  0.0078125 0.0078125 0  0.015625 0.0078125 0  0.0234375 0.0078125 0  0.03125 0.0078125 0  0.0390625 0.0078125 0  0.046875 0.0078125 0  0.0546875 0.0078125 0  0.0625 0.0078125 0  0.0703125 0.0078125 0  0.078125 0.0078125 0  0.0859375 0.0078125 0  0.09375 0.0078125 0  0.1015625 0.0078125 0  0.109375 0.0078125 0  0.1171875 0.0078125 0  0.125 0.0078125 0  0.1328125 0.0078125 0  0.140625 0.0078125 0  0.1484375 0.0078125 0  0.15625 0.0078125 0  0.1640625 0.0078125 0  0.171875 0.0078125 0  0.1796875 0.0078125 0  0.1875 0.0078125 0  0.1953125 0.0078125 0  0.203125 0.0078125 0  0.2109375 0.0078125 0  0.21875 0.0078125 0  0.2265625 0.0078125 0  0.234375 0.0078125 0  0.2421875 0.0078125 0  0.25 0.0078125 0  0.2578125 0.0078125 0  0.265625 0.0078125 0  0.2734375 0.0078125 0  0.28125 0.0078125 0  0.2890625 0.0078125 0  0.296875 0.0078125 0  0.3046875 0.0078125 0  0.3125 0.0078125 0  0.3203125 0.0078125 0  0.328125 0.0078125 0  0.3359375 0.0078125 0  0.34375 0.0078125 0  0.3515625 0.0078125 0  0.359375 0.0078125 0  0.3671875 0.0078125 0  0.375 0.0078125 0  0.3828125 0.0078125 0  0.390625 0.0078125 0  0.3984375 0.0078125 0  0.40625 0.0078125 0  0.4140625 0.0078125 0  0.421875 0.0078125 0  0.4296875 0.0078125 0  0.4375 0.0078125 0  0.4453125 0.0078125 0  0.453125 0.0078125 0  0.4609375 0.0078125 0  0.46875 0.0078125 0  0.4765625 0.0078125 0  0.484375 0.0078125 0  0.4921875 0.0078125 0  0.5 0.0078125 0  0.5078125 0.0078125 0  0.515625 0.0078125 0  0.5234375 0.0078125 0  0.53125 0.0078125 0  0.5390625 0.0078125 0  0.546875 0.0078125 0  0.5546875 0.0078125 0  0.5625 0.0078125 0  0.5703125 0.0078125 0  0.578125 0.0078125 0  0.5859375 0.0078125 0  0.59375 0.0078125 0  0.6015625 0.0078125 0  0.609375 0.0078125 0  0.6171875 0.0078125 0  0.625 0.0078125 0  0.6328125 0.0078125 0  0.640625 0.0078125 0  0.6484375 0.0078125 0  0.65625 0.0078125 0  0.6640625 0.0078125 0  0.671875 0.0078125 0  0.6796875 0.0078125 0  0.6875 0.0078125 0  0.6953125 0.0078125 0  0.703125 0.0078125 0  0.7109375 0.0078125 0  0.71875 0.0078125 0  0.7265625 0.0078125 0  0.734375 0.0078125 0  0.7421875 0.0078125 0  0.75 0.0078125 0  0.7578125 0.0078125 0  0.765625 0.0078125 0  0.7734375 0.0078125 0  0.78125 0.0078125 0  0.7890625 0.0078125 0  0.796875 0.0078125 0  0.8046875 0.0078125 0  0.8125 0.0078125 0  0.8203125 0.0078125 0  0.828125 0.0078125 0  0.8359375 0.0078125 0  0.84375 0.0078125 0  0.8515625 0.0078125 0  0.859375 0.0078125 0  0.8671875 0.0078125 0  0.875 0.0078125 0  0.8828125 0.0078125 0  0.890625 0.0078125 0  0.8984375 0.0078125 0  0.90625 0.0078125 0  0.9140625 0.0078125 0  0.921875 0.0078125 0  0.9296875 0.0078125 0  0.9375 0.0078125 0  0.9453125 0.0078125 0  0.953125 0.0078125 0  0.9609375 0.0078125 0  0.96875 0.0078125 0  0.9765625 0.0078125 0  0.984375 0.0078125 0  0.9921875 0.0078125 0  1 0.0078125 0  0 0.015625 0  0.0078125 0.015625 0  0.015625 0.015625 0  0.0234375 0.015625 0  0.03125 0.015625 0  0.0390625 0.015625 0  0.046875 0.015625 0  0.0546875 0.015625 0  0.0625 0.015625 0  0.0703125 0.015625 0  0.078125 0.015625 0  0.0859375 0.015625 0  0.09375 0.015625 0  0.1015625 0.015625 0  0.109375 0.015625 0  0.1171875 0.015625 0  0.125 0.015625 0  0.1328125 0.015625 0  0.140625 0.015625 0  0.1484375 0.015625 0  0.15625 0.015625 0  0.1640625 0.015625 0  0.171875 0.015625 0  0.1796875 0.015625 0  0.1875 0.015625 0  0.1953125 0.015625 0  0.203125 0.015625 0  0.2109375 0.015625 0  0.21875 0.015625 0  0.2265625 0.015625 0  0.234375 0.015625 0  0.2421875 0.015625 0  0.25 0.015625 0  0.2578125 0.015625 0  0.265625 0.015625 0  0.2734375 0.015625 0  0.28125 0.015625 0  0.2890625 0.015625 0  0.296875 0.015625 0  0.3046875 0.015625 0  0.3125 0.015625 0  0.3203125 0.015625 0  0.328125 0.015625 0  0.3359375 0.015625 0  0.34375 0.015625 0  0.3515625 0.015625 0  0.359375 0.015625 0  0.3671875 0.015625 0  0.375 0.015625 0  0.3828125 0.015625 0  0.390625 0.015625 0  0.3984375 0.015625 0  0.40625 0.015625 0  0.4140625 0.015625 0  0.421875 0.015625 0  0.4296875 0.015625 0  0.4375 0.015625 0  0.4453125 0.015625 0  0.453125 0.015625 0  0.4609375 0.015625 0  0.46875 0.015625 0  0.4765625 0.015625 0  0.484375 0.015625 0  0.4921875 0.015625 0  0.5 0.015625 0  0.5078125 0.015625 0  0.515625 0.015625 0  0.5234375 0.015625 0  0.53125 0.015625 0  0.5390625 0.015625 0  0.546875 0.015625 0  0.5546875 0.015625 0  0.5625 0.015625 0  0.5703125 0.015625 0  0.578125 0.015625 0  0.5859375 0.015625 0  0.59375 0.015625 0  0.6015625 0.015625 0  0.609375 0.015625 0  0.6171875 0.015625 0  0.625 0.015625 0  0.6328125 0.015625 0  0.640625 0.015625 0  0.6484375 0.015625 0  0.65625 0.015625 0  0.6640625 0.015625 0  0.671875 0.015625 0  0.6796875 0.015625 0  0.6875 0.015625 0  0.6953125 0.015625 0  0.703125 0.015625 0  0.7109375 0.015625 0  0.71875 0.015625 0  0.7265625 0.015625 0  0.734375 0.015625 0  0.7421875 0.015625 0  0.75 0.015625 0  0.7578125 0.015625 0  0.765625 0.015625 0  0.7734375 0.015625 0  0.78125 0.015625 0  0.7890625 0.015625 0  0.796875 0.015625 0  0.8046875 0.015625 0  0.8125 0.015625 0  0.8203125 0.015625 0  0.828125 0.015625 0  0.8359375 0.015625 0  0.84375 0.015625 0  0.8515625 0.015625 0  0.859375 0.015625 0  0.8671875 0.015625 0  0.875 0.015625 0  0.8828125 0.015625 0  0.890625 0.015625 0  0.8984375 0.015625 0  0.90625 0.015625 0  0.9140625 0.015625 0  0.921875 0.015625 0  0.9296875 0.015625 0  0.9375 0.015625 0  0.9453125 0.015625 0  0.953125 0.015625 0  0.9609375 0.015625 0  0.96875 0.015625 0  0.9765625 0.015625 0  0.984375 0.015625 0  0.9921875 0.015625 0  1 0.015625 0  0 0.0234375 0  0.0078125 0.0234375 0  0.015625 0.0234375 0  0.0234375 0.0234375 0  0.03125 0.0234375 0  0.0390625 0.0234375 0  0.046875 0.0234375 0  0.0546875 0.0234375 0  0.0625 0.0234375 0  0.0703125 0.0234375 0  0.078125 0.0234375 0  0.0859375 0.0234375 0  0.09375 0.0234375 0  0.1015625 0.0234375 0  0.109375 0.0234375 0  0.1171875 0.0234375 0  0.125 0.0234375 0  0.1328125 0.0234375 0  0.140625 0.0234375 0  0.1484375 0.0234375 0  0.15625 0.0234375 0  0.1640625 0.0234375 0  0.171875 0.0234375 0  0.1796875 0.0234375 0  0.1875 0.0234375 0  0.1953125 0.0234375 0  0.203125 0.0234375 0  0.2109375 0.0234375 0  0.21875 0.0234375 0  0.2265625 0.0234375 0  0.234375 0.0234375 0  0.2421875 0.0234375 0  0.25 0.0234375 0  0.2578125 0.0234375 0  0.265625 0.0234375 0  0.2734375 0.0234375 0  0.28125 0.0234375 0  0.2890625 0.0234375 0  0.296875 0.0234375 0  0.3046875 0.0234375 0  0.3125 0.0234375 0  0.3203125 0.0234375 0  0.328125 0.0234375 0  0.3359375 0.0234375 0  0.34375 0.0234375 0  0.3515625 0.0234375 0  0.359375 0.0234375 0  0.3671875 0.0234375 0  0.375 0.0234375 0  0.3828125 0.0234375 0  0.390625 0.0234375 0  0.3984375 0.0234375 0  0.40625 0.0234375 0  0.4140625 0.0234375 0  0.421875 0.0234375 0  0.4296875 0.0234375 0  0.4375 0.0234375 0  0.4453125 0.0234375 0  0.453125 0.0234375 0  0.4609375 0.0234375 0  0.46875 0.0234375 0  0.4765625 0.0234375 0  0.484375 0.0234375 0  0.4921875 0.0234375 0  0.5 0.0234375 0  0.5078125 0.0234375 0  0.515625 0.0234375 0  0.5234375 0.0234375 0  0.53125 0.0234375 0  0.5390625 0.0234375 0  0.546875 0.0234375 0  0.5546875 0.0234375 0  0.5625 0.0234375 0  0.5703125 0.0234375 0  0.578125 0.0234375 0  0.5859375 0.0234375 0  0.59375 0.0234375 0  0.6015625 0.0234375 0  0.609375 0.0234375 0  0.6171875 0.0234375 0  0.625 0.0234375 0  0.6328125 0.0234375 0  0.640625 0.0234375 0  0.6484375 0.0234375 0  0.65625 0.0234375 0  0.6640625 0.0234375 0  0.671875 0.0234375 0  0.6796875 0.0234375 0  0.6875 0.0234375 0  0.6953125 0.0234375 0  0.703125 0.0234375 0  0.7109375 0.0234375 0  0.71875 0.0234375 0  0.7265625 0.0234375 0  0.734375 0.0234375 0  0.7421875 0.0234375 0  0.75 0.0234375 0  0.7578125 0.0234375 0  0.765625 0.0234375 0  0.7734375 0.0234375 0  0.78125 0.0234375 0  0.7890625 0.0234375 0  0.796875 0.0234375 0  0.8046875 0.0234375 0  0.8125 0.0234375 0  0.8203125 0.0234375 0  0.828125 0.0234375 0  0.8359375 0.0234375 0  0.84375 0.0234375 0  0.8515625 0.0234375 0  0.859375 0.0234375 0  0.8671
[...]
<CellData  Scalars="f_7796"> 
<DataArray  type="Float64"  Name="f_7796"  format="ascii">2.3793435175221730e-13   2.3875102152744712e-13   1.4181280844797573e-13   1.8214399809212499e-13   1.4569181802144798e-13   1.5412406704266582e-13   1.4944981245433235e-13   1.5237272143560432e-13   1.5163798984408011e-13   1.5378867002132314e-13   1.5282191344556096e-13   1.5513141276462893e-13   1.5335636183595909e-13   1.5593381870113859e-13   1.5342661882084125e-13   1.5623497183481989e-13   1.5313483209728721e-13   1.5612304939342416e-13   1.5254154913451827e-13   1.5566674588026510e-13   1.5168518728386078e-13   1.5491399297421124e-13   1.5059174514224033e-13   1.5389830158810858e-13   1.4927995469054682e-13   1.5264387842713235e-13   1.4776416288276043e-13   1.5116899466777595e-13   1.4605601642894045e-13   1.4948812248586188e-13   1.4416548465696246e-13   1.4761329254939081e-13   1.4210150028435864e-13   1.4555496801683243e-13   1.3987237136576506e-13   1.4332261619909842e-13   1.3748605134123080e-13   1.4092508827214105e-13   1.3495031897034753e-13   1.3837087456162603e-13   1.3227289880367657e-13   1.3566827775355754e-13   1.2946154209974206e-13   1.3282553094731821e-13   1.2652408015050423e-13   1.2985087751099091e-13   1.2346845897909527e-13   1.2675262457289636e-13   1.2030275971369568e-13   1.2353917753524027e-13   1.1703520953075427e-13   1.2021906097644517e-13   1.1367418486872886e-13   1.1680092969301268e-13   1.1022820930611257e-13   1.1329357176034730e-13   1.0670594706613422e-13   1.0970590648981609e-13   1.0311619326348388e-13   1.0604697779621678e-13   9.9467861697264995e-14   1.0232594410991794e-13   9.5769970427650910e-14   9.8552065821502500e-14   9.2031625869205105e-14   9.4734690647871915e-14   8.8262005730154350e-14   9.0883237242145996e-14   8.4470340634701676e-14   8.7007177628878093e-14   8.0665895212423542e-14   8.3116018626464448e-14   7.6857948367122452e-14   7.9219282357138176e-14   7.3055773339798734e-14   7.5326486230022646e-14   6.9268617089254671e-14   7.1447122422190507e-14   6.5505679780001914e-14   6.7590637166087480e-14   6.1776093743261482e-14   6.3766409608137339e-14   5.8088903020686063e-14   5.9983730790263308e-14   5.4453042165077266e-14   5.6251782460085624e-14   5.0877315829829744e-14   5.2579616164802934e-14   4.7370378247963020e-14   4.8976132258428787e-14   4.3940712982111555e-14   4.5450059336947415e-14   4.0596613122611290e-14   4.2009933960720074e-14   3.7346161755218629e-14   3.8664080649445644e-14   3.4197212905391816e-14   3.5420592373375651e-14   3.1157373069083720e-14   3.2287311598692440e-14   2.8233983116857758e-14   2.9271811722104384e-14   2.5434101041287423e-14   2.6381379335269515e-14   2.2764485114889904e-14   2.3622996865759039e-14   2.0231577907922656e-14   2.1003326159517204e-14   1.7841490922406978e-14   1.8528692605322163e-14   1.5599990165466307e-14   1.6205070272142149e-14   1.3512482346139495e-14   1.4038067559912328e-14   1.1584002037761577e-14   1.2032914043310987e-14   9.8191997160105741e-15   1.0194447958180063e-14   8.2223306600771762e-15   8.5271047692690967e-15   6.7972448681072812e-15   7.0349065911866121e-15   5.5473778788534469e-15   5.7214526615764504e-15   4.4757426153281377e-15   4.5899107963736351e-15   3.5849222364374879e-15   3.6430099114603535e-15   2.8770640068343003e-15   2.8830334870740751e-15   2.3538742452465405e-15   2.3118142702743082e-15   2.0166142945664332e-15   1.9307298963136208e-15   1.8660975935092857e-15   1.7406997063907595e-15   1.9026878086433061e-15   1.7421826136248689e-15   2.1262980553545991e-15   1.9351761003937563e-15   2.5363912140789607e-15   2.3192163149980887e-15   3.1319813167410194e-15   2.8933792850526626e-15   3.9116360381114612e-15   3.6562832313106432e-15   4.8734802383023031e-15   4.6060919922736647e-15   6.0152006141554434e-15   5.7405195395516356e-15   7.3340513815525176e-15   7.0568355739689199e-15   8.8268610363730990e-15   8.5518722241820588e-15   1.0490040093866585e-14   1.0222031722720565e-14   1.2319589912142733e-14   1.2063295231470996e-14   1.4311112486278900e-14   1.4071232612340340e-14   1.6459821199373721e-14   1.6241013175085424e-14   1.8760552559375707e-14   1.8567417456175114e-14   2.1207778823003557e-14   2.1044849910708322e-14   2.3795621529261782e-14   2.3667352487155339e-14   2.6517865962948219e-14   2.6428619125936652e-14   2.9367976329622409e-14   2.9322011076923625e-14   3.2339111931769710e-14   3.2340572983521985e-14   3.5424143767933537e-14   3.5477049828319316e-14   3.8615672380229934e-14   3.8723904562282132e-14   4.1906045904531631e-14   4.2073336259145140e-14   4.5287379125657648e-14   4.5517299261488853e-14   4.8751572962206458e-14   4.9047522508419327e-14   5.2290334796565868e-14   5.2655529667704047e-14   5.5895199043499191e-14   5.6332659646094593e-14   5.9557548504259051e-14   6.0070087566505950e-14   6.3268636300336447e-14   6.3858846033638643e-14   6.7019608041840699e-14   6.7689846767654976e-14   7.0801524787558302e-14   7.1553902458122930e-14   7.4605386353942887e-14   7.5441748642896677e-14   7.8422155130699338e-14   7.9344065721237931e-14   8.2242780716150791e-14   8.3251500982989596e-14   8.6058224929786267e-14   8.7154690110157118e-14   8.9859487943821869e-14   9.1044278724399177e-14   9.3637635207451570e-14   9.4910942806785192e-14   9.7383825823810709e-14   9.8745408721016964e-14   1.0108934296658089e-13   1.0253847139177851e-13   1.0474562651304577e-13   1.0628101090071986e-13   1.0834430952712434e-13   1.0996400590602560e-13   1.1187726010810315e-13   1.1357854332701417e-13   1.1533663088916890e-13   1.1711582142756263e-13   1.1871492049405397e-13   1.2056714420888239e-13   1.2200505319895968e-13   1.2392390146058909e-13   1.2520048761952524e-13   1.2717752738305136e-13   1.2829537226942151e-13   1.3031942480745888e-13   1.3128478017950263e-13   1.3334083413132518e-13   1.3416508095297795e-13   1.3623261136428492e-13   1.3693456122900605e-13   1.3898485337414421e-13   1.3959451589747604e-13   1.4158626328158455e-13   1.4215126924187972e-13   1.4402306933128609e-13   1.4462010146518445e-13   1.4627718649091357e-13   1.4703309964769439e-13   1.4832318549587904e-13   1.4945433762492049e-13   1.5012391135568300e-13   1.5200177665465907e-13   1.5162763194153004e-13   1.5481764739452198e-13   1.5278754941284295e-13   1.5749844010535280e-13   1.5371141830398392e-13   1.5507006582719172e-13   1.5532362504457398e-13   1.2909379471605626e-13   1.5920892547615757e-13   2.4505298014889448e-12   2.0283378458549774e-13   1.8302335688553409e-13   1.4318875827450994e-13   1.6564121077111304e-13   1.6603303297306294e-13   1.5846328744375825e-13   1.6876600279893262e-13   1.5771306808534288e-13   1.6413000640129076e-13   1.5786314245946566e-13   1.6083057950172622e-13   1.5803096226422036e-13   1.5942100452157985e-13   1.5798422920166280e-13   1.5874025677425788e-13   1.5767569196789319e-13   1.5820254357158317e-13   1.5710751851374982e-13   1.5757792278992490e-13   1.5629313399288088e-13   1.5678183441666469e-13   1.5524693642423828e-13   1.5578585415914567e-13   1.5398188953452301e-13   1.5458350855994825e-13   1.5250930081111150e-13   1.5317704108294693e-13   1.5083913600395412e-13   1.5157214371245434e-13   1.4898039784509663e-13   1.4977582666013405e-13   1.4694144725413014e-13   1.4779556612568684e-13   1.4473024932233594e-13   1.4563898432139178e-13   1.4235455418913708e-13   1.4331375028594182e-13   1.3982202673657879e-13   1.4082756941378803e-13   1.3714033857404586e-13   1.3818820496595587e-13   1.3431723177019108e-13   1.3540350684384862e-13   1.3136056225299524e-13   1.3248143832481653e-13   1.2827832787787169e-13   1.2943009687677075e-13   1.2507868503587955e-13   1.2625772845098985e-13   1.2176995689430097e-13   1.2297273566198195e-13   1.1836063473401784e-13   1.1958368042299532e-13   1.1485937493736903e-13   1.1609928221268268e-13   1.1127499112485548e-13   1.1252841230110252e-13   1.0761644404763340e-13   1.0888008493265329e-13   1.0389282853221616e-13   1.0516344581779354e-13   1.0011335851992592e-13   1.0138775863798175e-13   9.6287350867350505e-14   9.7562389704639649e-14   9.2424207327457543e-14   9.3696790936063579e-14   8.8533396030253494e-14   8.9800482252376440e-14   8.4624431755701851e-14   8.5883032332203494e-14   8.0706855941868968e-14   8.1954039308808404e-14   7.6790215698126186e-14   7.8023109991765441e-14   7.2884042941754334e-14   7.4099839672715455e-14   6.8997833037823408e-14   7.0193790793219508e-14   6.5141023361240688e-14   6.6314471667719442e-14   6.1322971586784919e-14   6.2471315146431751e-14   5.7552934443029706e-14   5.8673657219736999e-14   5.3840046072303266e-14   5.4930715579587678e-14   5.0193297013761563e-14   5.1251568404919057e-14   4.6621512948780599e-14   4.7645133391944869e-14   4.3133334387715934e-14   4.4120146996861171e-14   3.9737195976863836e-14   4.0685143988405624e-14   3.6441307085152882e-14   3.7348437591226684e-14   3.3253631912817472e-14   3.4118099726593570e-14   3.0181871139888415e-14   3.1001942333764996e-14   2.7233443399464391e-14   2.8007498701259866e-14   2.4415467893528977e-14   2.5142005776586450e-14   2.1734747245186508e-14   2.2412386979614246e-14   1.9197751619957689e-14   1.9825235924136000e-14   1.6810603118325080e-14   1.7386800718449845e-14   1.4579061460973711e-14   1.5102969165418845e-14   1.2508509979459048e-14   1.2979254716113316e-14   1.0603943177390343e-14   1.1020783565137465e-14   8.8699544240743921e-15   9.2322821598615437e-15   7.3107254490072576e-15   7.6180663971666051e-15   5.9300160643186269e-15   6.1820309793821403e-15   4.7311554830961412e-15   4.9276404082549668e-15   3.7170341786005193e-15   3.8579206704719992e-15   2.8900972451437950e-15   2.9754520886204837e-15   2.2523384485742007e-15   2.2823632074536813e-15   1.8052956856181754e-15   1.7803258122459878e-15   1.5500471875294124e-15   1.4705508857901273e-15   1.4872092039611537e-15   1.3537859532941402e-15   1.6169345071402443e-15   1.4303132193650403e-15   1.9389121711170959e-15   1.6999490394746947e-15   2.4523684018281847e-15   2.1620444481760198e-15   3.1560685102030365e-15   2.8154867744045245e-15   4.0483199944923083e-15   3.6587024142056546e-15   5.1269767120949623e-15   4.6896606806314639e-15   6.3894441915632154e-15   5.9058787857703028e-15   7.8326859485946623e-15   7.3044278410435248e-15   9.4532309820296119e-15   8.8819400462820750e-15   1.1247182227208136e-14   1.0634616808652158e-14   1.3210226115590653e-14   1.2558237961806510e-14   1.5337643012331703e-14   1.4648171955586586e-14   1.7624318923495064e-14   1.6899387169940170e-14   2.0064757766947375e-14   1.9306463900472863e-14   2.2653095005498277e-14   2.1863607608689601e-14   2.5383111764253850e-14   2.4564662764412627e-14   2.8248250165581840e-14   2.7403127812785464e-14   3.1241629365544750e-14   3.0372170677284622e-14   3.4356062151326607e-14   3.3464645251789160e-14   3.7584072795152609e-14   3.6673108636716406e-14   4.0917915223716504e-14   3.9989838802683755e-14   4.4349591997892769e-14   4.3406853124804283e-14   4.7870873941732426e-14   4.6915927449175549e-14   5.1473320281207420e-14   5.0508615499748673e-14   5.5148299531216340e-14   5.4176268936856789e-14   5.8887010623965522e-14   5.7910057705547890e-14   6.2680504613445012e-14   6.1700990443281784e-14   6.6519706753105140e-14   6.5539935509565014e-14   7.0395439131069027e-14   6.9417641713750553e-14   7.4298443146848419e-14   7.3324758969371780e-14   7.8219402593868563e-14   7.7251858942808025e-14   8.2148966780250197e-14   8.1189455147430981e-14   8.6077773997166747e-14   8.5128022347104303e-14   8.9996474349868444e-14   8.9058014678943519e-14   9.3895753269567160e-14   9.2969882860369382e-14   9.7766354127379740e-14   9.6854088685416800e-14   1.0159910079378051e-13   1.0070111707109247e-13   1.0538491913717209e-13   1.0450148377923969e-13   1.0911485706135918e-13   1.0824573738082477e-13   1.1278010271441712e-13   1.1192445334068776e-13   1.1637199888824081e-13   1.1552821600915180e-13   1.1988205123122751e-13   1.1904758365186502e-13   1.2330192718267070e-13   1.2247302837585841e-13   1.2662343668050081e-13   1.2579483750801001e-13   1.2983848312809284e-13   1.2900295724887372e-13   1.3293895798853543e-13   1.3208674479645838e-13   1.3591653039456038e-13   1.3503457586701968e-13   1.3876223004650712e-13   1.3783321650443791e-13   1.4146560578103581e-13   1.4046680330977978e-13   1.4401296258246709e-13   1.4291515809650350e-13   1.4638347096253271e-13   1.4515094762236330e-13   1.4854000456486216e-13   1.4713479562931653e-13   1.5040594273401167e-13   1.4880669997763393e-13   1.5180213760378806e-13   1.5007062467061974e-13   1.5226677422690293e-13   1.5076571843898933e-13   1.5054637886008122e-13   1.5060612485532954e-13   1.4345553771119326e-13   1.4902252996269149e-13   1.2670405942580143e-13   1.4477848954826305e-13   1.2320825164987988e-13   1.3828957067078857e-13   1.3028007569498935e-13   1.6101465838090654e-13   1.5564071681425433e-13   1.4748878147656715e-13   1.6945132925028916e-13   1.5972650409240827e-13   1.6508054344609551e-13   1.6538839312711989e-13   1.6238346392686216e-13   1.6623099882434846e-13   1.6105642636448408e-13   1.6457521815511195e-13   1.6027826406718683e-13   1.6276101227019660e-13   1.5962882205518075e-13   1.6132883549300481e-13   1.5892037259422383e-13   1.6015198138419522e-13   1.5807071022240467e-13   1.5904764497027052e-13   1.5704526640353654e-13   1.5789581280291970e-13   1.5583114260778823e-13   1.5662981822628757e-13   1.5442547256173125e-13   1.5521518661363272e-13   1.5283014970093783e-13   1.5363542388347581e-13   1.5104940080422759e-13   1.5188397132326528e-13   1.4908865406010229e-13   1.4995983690361430e-13   1.4695400688827030e-13   1.4786523244847710e-13   1.4465197642420885e-13   1.4560428448282131e-13   1.4218938454262839e-13   1.4318232088306987e-13   1.3957330646918885e-13   1.4060546970146430e-13   1.3681104892550902e-13   1.3788042929648617e-13   1.3391014077478238e-13   1.3501433336562079e-13   1.3087832847489130e-13   1.3201466925251026e-13   1.2772357159910906e-13   1.2888922580501751e-13   1.2445403779931634e-13   1.2564605815209374e-13   1.2107809558745000e-13   1.2229346128398768e-13   1.1760430489254515e-13   1.1883994849737865e-13   1.1404140606208835e-13   1.1529423265915168e-13   1.1039830646231960e-13   1.1166520758065529e-13   1.0668406617285411e-13   1.0796193050565212e-13   1.0290788146560398e-13   1.0419360356356556e-13   9.9079067709965162e-14   1.0036955534892572e-13   9.5207040989528599e-14   9.6499221525233386e-14   9.1301298746211544e-14   9.2592125212847271e-14   8.7371400130400687e-14   8.8657856685153356e-14   8.3426945001797939e-14   8.4706052647002753e-14   7.9477553481816839e-14   8.0746375206882142e-14   7.5532844160530418e-14   7.6788490336847899e-14   7.1602412844583112e-14   7.2842046389850963e-14   6.7695810576936895e-14   6.8916652261910815e-14   6.3822521889604217e-14   6.5021855442842061e-14   5.9991943036213249e-14   6.1167120285319839e-14   5.6213360106983475e-14   5.7361806050270961e-14   5.2495927596344581e-14   5.3615145348426672e-14   4.8848646958355476e-14   4.9936222686350777e-14   4.5280345549964003e-14   4.6333953143687238e-14   4.1799655793172915e-14   4.2817061631475278e-14   3.8414995041598927e-14   3.9394062450004458e-14   3.5134545527174456e-14   3.6073239097135872e-14   3.1966235205129607e-14   3.2862624931500461e-14   2.8917718801759209e-14   2.9769984038492732e-14   2.5996359889921660e-14   2.6802793091160898e-14   2.3209213145192957e-14   2.3968223401746979e-14   2.0563007899746855e-14   2.1273124156410806e-14   1.8064131895458782e-14   1.8724006044994249e-14   1.5718616245129790e-14   1.6327025828593646e-14   1.3532121014570353e-14   1.4087971753671332e-14   1.1509921836836416e-14   1.2012249769126082e-14   9.6568972490388693e-15   1.0104870680697922e-14   7.9775171581860033e-15   8.3704383081538540e-15   6.4758321722163084e-15   6.8131384399506280e-15   5.1554640175837897e-15   5.4367289463886292e-15   4.0195968730227855e-15   4.2445308637239530e-15   3.0709697876568184e-15   3.2394204573108197e-15   2.3118703168617297e-15   2.4238224913798577e-15   1.7441289448237675e-15   1.7997043763932491e-15   1.3691148969856331e-15   1.3685716065205564e-15   1.1877328668888544e-15   1.1314641960299678e-15   1.2004209502478539e-15   1.0889542541443939e-15   1.4071496892222043e-15   1.2411446755106887e-15   1.8074221990062890e-15   1.5876689638304019e-15   2.4002754752749413e-15   2.1276921965128893e-15   3.1842827857455304e-15   2.8599130792084793e-15   4.1575572031795246e-15   3.7825671370610632e-15   5.3177562149152319e-15   4.8934310106418805e-15   6.6620874709513053e-15   6.1898278656804283e-15   8.1873155854619797e-15   7.6686338568848453e-15   9.8897700093872773e-15   9.3262856959722367e-15   1.1765353931509836e-14   1.1158789232611032e-14   1.3809554327834802e-14   1.3161729129500557e-14   1.6017452763439439e-14   1.5330279403528420e-14   1.8383737489056580e-14   1.7659215133157209e-14   2.0902716128906528e-14   2.0142924894484215e-14   2.3568329661227495e-14   2.2775424340039713e-14   2.6374166920703828e-14   2.5550370392480895e-14   2.9313480210003313e-14   2.8461076508681646e-14   3.2379201536468691e-14   3.1500528520580170e-14   3.5563959731134465e-14   3.4661401409419625e-14   3.8860098135490135e-14   3.7936076615600671e-14   4.2259693146523239e-14   4.1316660034929691e-14   4.5754573075618898e-14   4.4795000540251359e-14   4.9336337914600314e-14   4.8362709205079803e-14   5.2996379339974283e-14   5.2011178541457862e-14   5.6725901086394571e-14   5.5731602437818713e-14   6.0515939921482443e-14   5.9514996221934252e-14   6.4357386478140175e-14   6.3352216815326174e-14   6.8241006718334661e-14   6.7233982825013035e-14   7.2157462887872006e-14   7.1150894560777837e-14   7.6097334694571440e-14   7.5093453671196043e-14   8.0051140057006062e-14   7.9052082096203423e-14   8.4009355176268340e-14   8.3017140143127609e-14   8.7962433948985844e-14   8.6978943226878182e-14   9.1900825660882916e-14   9.0927776704736709e-14   9.5814991318083145e-14   9.4853908426057740e-14   9.9695416606168532e-14   9.8747597292209420e-14   1.0353262129363968e-13   1.0259909762178229e-13   1.0731716269544179e-13   1.0639865638805606e-13   1.1103963060990859e-13   1.1013650156628426e-13   1.1469062985256875e-13   1.1380281743426881e-13   1.1826074357678179e-13   1.1738770178560572e-13   1.2174046768731024e-13   1.2088109652367009e-13   1.2512009895969770e-13   1.2427268030649309e-13   1.2838954993265038e-13   1.2755170474742879e-13   1.3153804205960297e-13   1.3070674594384161e-13   1.3455359363399627e-13   1.3372532786044771e-13   1.3742214955559483e-13   1.3659334738605256e-13   1.4012606603269281e-13   1.3929418920977654e-13   1.4264139263185844e-13   1.4180734794527951e-13   1.4493282968608026e-13   1.4410625891057988e-13   1.4694403690467791e-13   1.4615484853906993e-13   1.4857840172863006e-13   1.4790201588921618e-13   1.4966017671063620e-13   1.4927283128602807e-13   1.4985746582693467e-13   1.5015485160465962e-13   1.4854770774705574e-13   1.5037895062269652e-13   1.4469210642899488e-13   1.4970582764562707e-13   1.3728838519715810e-13   1.4791359237979814e-13   1.2826172670914855e-13   1.4554189942038943e-13   1.2834069722826553e-13   1.4686106922643367e-13   1.5848395782656768e-13   1.5952763702854479e-13   1.5447986581063327e-13   1.5182943579193330e-13   1.6558791005517923e-13   1.5962525876131613e-13   1.6679773694734703e-13   1.6351194415081984e-13   1.6514971534322605e-13   1.6544511787269555e-13   1.6354951533115385e-13   1.6538694131943430e-13   1.6227370928922580e-13   1.6430802920848837e-13   1.6117521703054560e-13   1.6294918246826827e-13   1.6010851091761925e-13   1.6157326888036057e-13   1.5897898687197909e-13   1.6020396483231614e-13   1.5773183301110334e-13   1.5879777292016769e-13   1.5633716725675126e-13   1.5730845803906066e-13   1.5477982538664521e-13   1.5570224785023089e-13   1.5305323412412523e-13   1.5395778626085504e-13   1.5115588932585316e-13   1.5206299120708488e-13   1.4908935287