<?xml version="1.0"?>
<VTKFile type="UnstructuredGrid"  version="0.1"  >
<UnstructuredGrid>
<Piece  NumberOfPoints="16641" NumberOfCells="32768">
<Points>
<DataArray  type="Float64"  NumberOfComponents="3"  format="ascii">0 0 0  0.0078125 0 0  0.015625 0 0  0.0234375 0 0  0.03125 0 0  0.0390625 0 0  0.046875 0 0  0.0546875 0 0  0.0625 0 0  0.0703125 0 0  0.078125 0 0  0.0859375 0 0  0.09375 0 0  0.1015625 0 0  0.109375 0 0  0.1171875 0 0  0.125 0 0  0.1328125 0 0  0.140625 0 0  0.1484375 0 0  0.15625 0 0  0.1640625 0 0  0.171875 0 0  0.1796875 0 0  0.1875 0 0  0.1953125 0 0  0.203125 0 0  0.2109375 0 0  0.21875 0 0  0.2265625 0 0  0.234375 0 0  0.2421875 0 0  0.25 0 0  0.2578125 0 0  0.265625 0 0  0.2734375 0 0  0.28125 0 0  0.2890625 0 0  0.296875 0 0  0.3046875 0 0  0.3125 0 0  0.3203125 0 0  0.328125 0 0  0.3359375 0 0  0.34375 0 0  0.3515625 0 0  0.359375 0 0  0.3671875 0 0  0.375 0 0  0.3828125 0 0  0.390625 0 0  0.3984375 0 0  0.40625 0 0  0.4140625 0 0  0.421875 0 0  0.4296875 0 0  0.4375 0 0  0.4453125 0 0  0.453125 0 0  0.4609375 0 0  0.46875 0 0  0.4765625 0 0  0.484375 0 0  0.4921875 0 0  0.5 0 0  0.5078125 0 0  0.515625 0 0  0.5234375 0 0  0.53125 0 0  0.5390625 0 0  0.546875 0 0  0.5546875 0 0  0.5625 0 0  0.5703125 0 0  0.578125 0 0  0.5859375 0 0  0.59375 0 0  0.6015625 0 0  0.609375 0 0  0.6171875 0 0  0.625 0 0  0.6328125 0 0  0.640625 0 0  0.6484375 0 0  0.65625 0 0  0.6640625 0 0  0.671875 0 0  0.6796875 0 0  0.6875 0 0  0.6953125 0 0  0.703125 0 0  0.7109375 0 0  0.71875 0 0  0.7265625 0 0  0.734375 0 0  0.7421875 0 0  0.75 0 0  0.7578125 0 0  0.765625 0 0  0.7734375 0 0  0.78125 0 0  0.7890625 0 0  0.796875 0 0  0.8046875 0 0  0.8125 0 0  0.8203125 0 0  0.828125 0 0  0.8359375 0 0  0.84375 0 0  0.8515625 0 0  0.859375 0 0  0.8671875 0 0  0.875 0 0  0.8828125 0 0  0.890625 0 0  0.8984375 0 0  0.90625 0 0  0.9140625 0 0  0.921875 0 0  0.9296875 0 0  0.9375 0 0  0.9453125 0 0  0.953125 0 0  0.9609375 0 0  0.96875 0 0  0.9765625 0 0  0.984375 0 0  0.9921875 0 0  1 0 0  0 0.0078125 0  0.0078125 0.0078125 0  0.015625 0.0078125 0  0.0234375 0.0078125 0  0.03125 0.0078125 0  0.0390625 0.0078125 0  0.046875 0.0078125 0  0.0546875 0.0078125 0  0.0625 0.0078125 0  0.0703125 0.0078125 0  0.078125 0.0078125 0  0.0859375 0.0078125 0  0.09375 0.0078125 0  0.1015625 0.0078125 0  0.109375 0.0078125 0  0.1171875 0.0078125 0  0.125 0.0078125 0  0.1328125 0.0078125 0  0.140625 0.0078125 0  0.1484375 0.0078125 0  0.15625 0.0078125 0  0.1640625 0.0078125 0  0.171875 0.0078125 0  0.1796875 0.0078125 0  0.1875 0.0078125 0  0.1953125 0.0078125 0  0.203125 0.0078125 0  0.2109375 0.0078125 0  0.21875 0.0078125 0  0.2265625 0.0078125 0  0.234375 0.0078125 0  0.2421875 0.0078125 0  0.25 0.0078125 0  0.2578125 0.0078125 0  0.265625 0.0078125 0  0.2734375 0.0078125 0  0.28125 0.0078125 0  0.2890625 0.0078125 0  0.296875 0.0078125 0  0.3046875 0.0078125 0  0.3125 0.0078125 0  0.3203125 0.0078125 0  0.328125 0.0078125 0  0.3359375 0.0078125 0  0.34375 0.0078125 0  0.3515625 0.0078125 0  0.359375 0.0078125 0  0.3671875 0.0078125 0  0.375 0.0078125 0  0.3828125 0.0078125 0  0.390625 0.0078125 0  0.3984375 0.0078125 0  0.40625 0.0078125 0  0.4140625 0.0078125 0  0.421875 0.0078125 0  0.4296875 0.0078125 0  0.4375 0.0078125 0  0.4453125 0.0078125 0  0.453125 0.0078125 0  0.4609375 0.0078125 0  0.46875 0.0078125 0  0.4765625 0.0078125 0  0.484375 0.0078125 0  0.4921875 0.0078125 0  0.5 0.0078125 0  0.5078125 0.0078125 0  0.515625 0.0078125 0  0.5234375 0.0078125 0  0.53125 0.0078125 0  0.5390625 0.0078125 0  0.546875 0.0078125 0  0.5546875 0.0078125 0  0.5625 0.0078125 0  0.5703125 0.0078125 0  0.578125 0.0078125 0  0.5859375 0.0078125 0  0.59375 0.0078125 0  0.6015625 0.0078125 0  0.609375 0.0078125 0  0.6171875 0.0078125 0  0.625 0.0078125 0  0.6328125 0.0078125 0  0.640625 0.0078125 0  0.6484375 0.0078125 0  0.65625 0.0078125 0  0.6640625 0.0078125 0  0.671875 0.0078125 0  0.6796875 0.0078125 0  0.6875 0.0078125 0  0.6953125 0.0078125 0  0.703125 0.0078125 0  0.7109375 0.0078125 0  0.71875 0.0078125 0  0.7265625 0.0078125 0  0.734375 0.0078125 0  0.7421875 0.0078125 0  0.75 0.0078125 0  0.7578125 0.0078125 0  0.765625 0.0078125 0  0.7734375 0.0078125 0  0.78125 0.0078125 0  0.7890625 0.0078125 0  0.796875 0.0078125 0  0.8046875 0.0078125 0  0.8125 0.0078125 0  0.8203125 0.0078125 0  0.828125 0.0078125 0  0.8359375 0.0078125 0  0.84375 0.0078125 0  0.8515625 0.0078125 0  0.859375 0.0078125 0  0.8671875 0.0078125 0  0.875 0.0078125 0  0.8828125 0.0078125 0  0.890625 0.0078125 0  0.8984375 0.0078125 0  0.90625 0.0078125 0  0.9140625 0.0078125 0  0.921875 0.0078125 0  0.9296875 0.0078125 0  0.9375 0.0078125 0  0.9453125 0.0078125 0  0.953125 0.0078125 0  0.9609375 0.0078125 0  0.96875 0.0078125 0  0.9765625 0.0078125 0  0.984375 0.0078125 0  0.9921875 0.0078125 0  1 0.0078125 0  0 0.015625 0  0.0078125 0.015625 0  0.015625 0.015625 0  0.0234375 0.015625 0  0.03125 0.015625 0  0.0390625 0.015625 0  0.046875 0.015625 0  0.0546875 0.015625 0  0.0625 0.015625 0  0.0703125 0.015625 0  0.078125 0.015625 0  0.0859375 0.015625 0  0.09375 0.015625 0  0.1015625 0.015625 0  0.109375 0.015625 0  0.1171875 0.015625 0  0.125 0.015625 0  0.1328125 0.015625 0  0.140625 0.015625 0  0.1484375 0.015625 0  0.15625 0.015625 0  0.1640625 0.015625 0  0.171875 0.015625 0  0.1796875 0.015625 0  0.1875 0.015625 0  0.1953125 0.015625 0  0.203125 0.015625 0  0.2109375 0.015625 0  0.21875 0.015625 0  0.2265625 0.015625 0  0.234375 0.015625 0  0.2421875 0.015625 0  0.25 0.015625 0  0.2578125 0.015625 0  0.265625 0.015625 0  0.2734375 0.015625 0  0.28125 0.015625 0  0.2890625 0.015625 0  0.296875 0.015625 0  0.3046875 0.015625 0  0.3125 0.015625 0  0.3203125 0.015625 0  0.328125 0.015625 0  0.3359375 0.015625 0  0.34375 0.015625 0  0.3515625 0.015625 0  0.359375 0.015625 0  0.3671875 0.015625 0  0.375 0.015625 0  0.3828125 0.015625 0  0.390625 0.015625 0  0.3984375 0.015625 0  0.40625 0.015625 0  0.4140625 0.015625 0  0.421875 0.015625 0  0.4296875 0.015625 0  0.4375 0.015625 0  0.4453125 0.015625 0  0.453125 0.015625 0  0.4609375 0.015625 0  0.46875 0.015625 0  0.4765625 0.015625 0  0.484375 0.015625 0  0.4921875 0.015625 0  0.5 0.015625 0  0.5078125 0.015625 0  0.515625 0.015625 0  0.5234375 0.015625 0  0.53125 0.015625 0  0.5390625 0.015625 0  0.546875 0.015625 0  0.5546875 0.015625 0  0.5625 0.015625 0  0.5703125 0.015625 0  0.578125 0.015625 0  0.5859375 0.015625 0  0.59375 0.015625 0  0.6015625 0.015625 0  0.609375 0.015625 0  0.6171875 0.015625 0  0.625 0.015625 0  0.6328125 0.015625 0  0.640625 0.015625 0  0.6484375 0.015625 0  0.65625 0.015625 0  0.6640625 0.015625 0  0.671875 0.015625 0  0.6796875 0.015625 0  0.6875 0.015625 0  0.6953125 0.015625 0  0.703125 0.015625 0  0.7109375 0.015625 0  0.71875 0.015625 0  0.7265625 0.015625 0  0.734375 0.015625 0  0.7421875 0.015625 0  0.75 0.015625 0  0.7578125 0.015625 0  0.765625 0.015625 0  0.7734375 0.015625 0  0.78125 0.015625 0  0.7890625 0.015625 0  0.796875 0.015625 0  0.8046875 0.015625 0  0.8125 0.015625 0  0.8203125 0.015625 0  0.828125 0.015625 0  0.8359375 0.015625 0  0.84375 0.015625 0  0.8515625 0.015625 0  0.859375 0.015625 0  0.8671875 0.015625 0  0.875 0.015625 0  0.8828125 0.015625 0  0.890625 0.015625 0  0.8984375 0.015625 0  0.90625 0.015625 0  0.9140625 0.015625 0  0.921875 0.015625 0  0.9296875 0.015625 0  0.9375 0.015625 0  0.9453125 0.015625 0  0.953125 0.015625 0  0.9609375 0.015625 0  0.96875 0.015625 0  0.9765625 0.015625 0  0.984375 0.015625 0  0.9921875 0.015625 0  1 0.015625 0  0 0.0234375 0  0.0078125 0.0234375 0  0.015625 0.0234375 0  0.0234375 0.0234375 0  0.03125 0.0234375 0  0.0390625 0.0234375 0  0.046875 0.0234375 0  0.0546875 0.0234375 0  0.0625 0.0234375 0  0.0703125 0.0234375 0  0.078125 0.0234375 0  0.0859375 0.0234375 0  0.09375 0.0234375 0  0.1015625 0.0234375 0  0.109375 0.0234375 0  0.1171875 0.0234375 0  0.125 0.0234375 0  0.1328125 0.0234375 0  0.140625 0.0234375 0  0.1484375 0.0234375 0  0.15625 0.0234375 0  0.1640625 0.0234375 0  0.171875 0.0234375 0  0.1796875 0.0234375 0  0.1875 0.0234375 0  0.1953125 0.0234375 0  0.203125 0.0234375 0  0.2109375 0.0234375 0  0.21875 0.0234375 0  0.2265625 0.0234375 0  0.234375 0.0234375 0  0.2421875 0.0234375 0  0.25 0.0234375 0  0.2578125 0.0234375 0  0.265625 0.0234375 0  0.2734375 0.0234375 0  0.28125 0.0234375 0  0.2890625 0.0234375 0  0.296875 0.0234375 0  0.3046875 0.0234375 0  0.3125 0.0234375 0  0.3203125 0.0234375 0  0.328125 0.0234375 0  0.3359375 0.0234375 0  0.34375 0.0234375 0  0.3515625 0.0234375 0  0.359375 0.0234375 0  0.3671875 0.0234375 0  0.375 0.0234375 0  0.3828125 0.0234375 0  0.390625 0.0234375 0  0.3984375 0.0234375 0  0.40625 0.0234375 0  0.4140625 0.0234375 0  0.421875 0.0234375 0  0.4296875 0.0234375 0  0.4375 0.0234375 0  0.4453125 0.0234375 0  0.453125 0.0234375 0  0.4609375 0.0234375 0  0.46875 0.0234375 0  0.4765625 0.0234375 0  0.484375 0.0234375 0  0.4921875 0.0234375 0  0.5 0.0234375 0  0.5078125 0.0234375 0  0.515625 0.0234375 0  0.5234375 0.0234375 0  0.53125 0.0234375 0  0.5390625 0.0234375 0  0.546875 0.0234375 0  0.5546875 0.0234375 0  0.5625 0.0234375 0  0.5703125 0.0234375 0  0.578125 0.0234375 0  0.5859375 0.0234375 0  0.59375 0.0234375 0  0.6015625 0.0234375 0  0.609375 0.0234375 0  0.6171875 0.0234375 0  0.625 0.0234375 0  0.6328125 0.0234375 0  0.640625 0.0234375 0  0.6484375 0.0234375 0  0.65625 0.0234375 0  0.6640625 0.0234375 0  0.671875 0.0234375 0  0.6796875 0.0234375 0  0.6875 0.0234375 0  0.6953125 0.0234375 0  0.703125 0.0234375 0  0.7109375 0.0234375 0  0.71875 0.0234375 0  0.7265625 0.0234375 0  0.734375 0.0234375 0  0.7421875 0.0234375 0  0.75 0.0234375 0  0.7578125 0.0234375 0  0.765625 0.0234375 0  0.7734375 0.0234375 0  0.78125 0.0234375 0  0.7890625 0.0234375 0  0.796875 0.0234375 0  0.8046875 0.0234375 0  0.8125 0.0234375 0  0.8203125 0.0234375 0  0.828125 0.0234375 0  0.8359375 0.0234375 0  0.84375 0.0234375 0  0.8515625 0.0234375 0  0.859375 0.0234375 0  0.8671
[...]
<CellData  Scalars="f_16760"> 
<DataArray  type="Float64"  Name="f_16760"  format="ascii">9.5750150410290328e-15   9.5594010658450788e-15   9.5108247092240040e-15   9.7182844723401667e-15   9.4364279689234965e-15   9.6476467646423055e-15   9.3513330252969240e-15   9.5652166535609484e-15   9.2556382985108509e-15   9.4717246741974010e-15   9.1495410488436149e-15   9.3675133383865334e-15   9.0332838866847008e-15   9.2528554913290952e-15   8.9071410180715258e-15   9.1280290667026193e-15   8.7714133865621722e-15   8.9933332063524042e-15   8.6264263871240229e-15   8.8490907572530375e-15   8.4725284138705113e-15   8.6956479705561812e-15   8.3100897102258802e-15   8.5333736424600306e-15   8.1395013064439858e-15   8.3626581201502824e-15   7.9611739915700999e-15   8.1839122850080256e-15   7.7755372733064961e-15   7.9975664937508302e-15   7.5830383113498244e-15   7.8040695035525151e-15   7.3841408240855595e-15   7.6038873586549348e-15   7.1793239610041357e-15   7.3975022507535929e-15   6.9690811405779872e-15   7.1854113382703119e-15   6.7539188547429703e-15   6.9681255456372583e-15   6.5343554540680452e-15   6.7461683221089597e-15   6.3109198903390962e-15   6.5200743798805904e-15   6.0841504446612442e-15   6.2903883982208539e-15   5.8545934294340914e-15   6.0576637168580538e-15   5.6228018692211161e-15   5.8224609905450668e-15   5.3893341774241337e-15   5.5853468521942802e-15   5.1547528004039621e-15   5.3468925362101591e-15   4.9196228658449461e-15   5.1076725036819688e-15   4.6845108276899998e-15   4.8682630603262754e-15   4.4499830898365977e-15   4.6292409701532489e-15   4.2166046565136465e-15   4.3911820651348748e-15   3.9849377512685176e-15   4.1546598474963278e-15   3.7555404873962930e-15   3.9202441284600236e-15   3.5289654983895734e-15   3.6884996347741562e-15   3.3057586258463442e-15   3.4599846649712604e-15   3.0864575958526554e-15   3.2352497326165407e-15   2.8715907228361124e-15   3.0148362426852630e-15   2.6616756414375222e-15   2.7992751958433358e-15   2.4572180540435267e-15   2.5890858979320812e-15   2.2587105171118496e-15   2.3847747143452240e-15   2.0666312541167850e-15   2.1868338494191824e-15   1.8814429995719719e-15   1.9957401611908529e-15   1.7035918882621684e-15   1.8119540118272415e-15   1.5335063790924646e-15   1.6359181588662029e-15   1.3715962235155473e-15   1.4680566896278821e-15   1.2182514770592318e-15   1.3087739968719216e-15   1.0738415608341382e-15   1.1584538067192046e-15   9.3871437056444124e-16   1.0174582553340519e-15   8.1319543886469861e-16   8.8612701324046164e-16   6.9758715324080634e-16   7.6477646947831861e-16   5.9216802340457672e-16   6.5369896946680373e-16   4.9719201425581370e-16   5.5316210829788815e-16   4.1288793037233832e-16   4.6340808769977194e-16   3.3945886858825152e-16   3.8465313488926156e-16   2.7708172548933293e-16   3.1708697746950771e-16   2.2590677384251336e-16   2.6087238891920095e-16   1.8605729879341242e-16   2.1614479521661248e-16   1.5762930139397563e-16   1.8301194964088765e-16   1.4069126759325240e-16   1.6155367283281680e-16   1.3528400275735670e-16   1.5182166016462503e-16   1.4142053442879848e-16   1.5383935773546082e-16   1.5908607913517337e-16   1.6760190475180407e-16   1.8823807993532837e-16   1.9307614743561633e-16   2.2880630718655252e-16   2.3020071590956579e-16   2.8069303055763017e-16   2.7888617537923579e-16   3.4377324876568726e-16   3.3901523925149219e-16   4.1789499829728289e-16   4.1044305043122683e-16   5.0287971384710528e-16   4.9299753545500577e-16   5.9852266096594226e-16   5.8647981421740162e-16   7.0459342826047370e-16   6.9066468038335910e-16   8.2083648177523718e-16   8.0530114311934079e-16   9.4697178462409452e-16   9.3011303597576640e-16   1.0826954653281218e-15   1.0647996768664825e-15   1.2276805569139398e-15   1.2090365946975376e-15   1.3815777759636548e-15   1.3624763104962088e-15   1.5440163757195676e-15   1.5247491772175045e-15   1.7146050240706932e-15   1.6954642646690144e-15   1.8929327634859125e-15   1.8742103074791781e-15   2.0785699865773378e-15   2.0605566945815179e-15   2.2710694786836319e-15   2.2540544987823340e-15   2.4699674944197611e-15   2.4542375703403373e-15   2.6747848717364587e-15   2.6606236506045230e-15   2.8850281888933948e-15   2.8727155415415461e-15   3.1001909539846262e-15   3.0900022942521213e-15   3.3197548221632091e-15   3.3119604524243082e-15   3.5431908496597845e-15   3.5380552958425242e-15   3.7699607601594454e-15   3.7677421471701820e-15   3.9995182474112207e-15   4.0004676703499581e-15   4.2313102868308543e-15   4.2356712130746432e-15   4.4647784789843844e-15   4.4727861503075861e-15   4.6993603763532962e-15   4.7112412565887629e-15   4.9344908545647374e-15   4.9504620726455255e-15   5.1696034680604912e-15   5.1898722974081798e-15   5.4041318109408746e-15   5.4288951724687856e-15   5.6375108868971649e-15   5.6669548749732129e-15   5.8691784698529302e-15   5.9034779004615071e-15   6.0985764522428282e-15   6.1378944472796503e-15   6.3251522000654071e-15   6.3696397914499649e-15   6.5483598752022756e-15   6.5981556396400592e-15   6.7676617547296358e-15   6.8228914809389177e-15   6.9825295244659510e-15   7.0433059122809657e-15   7.1924455525067558e-15   7.2588679404497035e-15   7.3969041378939410e-15   7.4690582678443723e-15   7.5954127281277755e-15   7.6733705301664128e-15   7.7874931036838724e-15   7.8713125339211270e-15   7.9726825366887165e-15   8.0624074262004196e-15   8.1505348959609661e-15   8.2461948576868830e-15   8.3206217354016205e-15   8.4222320816538477e-15   8.4825333175495933e-15   8.5900950296001657e-15   8.6358796058257412e-15   8.7493793302770593e-15   8.7802912091720790e-15   8.8997012812983061e-15   8.9154202774971644e-15   9.0406987844352732e-15   9.0409413365419094e-15   9.1720322103087969e-15   9.1565520904811449e-15   9.2933852282473374e-15   9.2619741624322768e-15   9.4044655645177563e-15   9.3569537814856791e-15   9.5050057092042904e-15   9.4412624238891240e-15   9.5947635719443361e-15   9.5146974158445823e-15   9.6735230546208755e-15   9.5770824845283016e-15   9.7410945717906999e-15   9.6282683054426623e-15   9.7973154906593651e-15   9.6681330528142911e-15   9.8420504723690035e-15   9.6965830622142116e-15   9.8751916847273396e-15   9.7135538943771694e-15   9.8966587941549868e-15   9.7190130899764663e-15   9.9063984985946495e-15   9.7129708272149175e-15   9.9043826970356111e-15   9.6955486553391374e-15   9.8906029471186363e-15   9.6670704255684668e-15   9.8649930506977511e-15   9.4268134502952770e-15   9.8281932360019641e-15   9.6917356732789516e-15   9.4471525610063625e-15   9.6250482389797906e-15   9.6036025526302875e-15   9.5467358824929189e-15   9.5288362405326100e-15   9.4574010796029198e-15   9.4430210067972744e-15   9.3573497051758361e-15   9.3464302490065731e-15   9.2468387627270523e-15   9.2393311734105383e-15   9.1261368642740415e-15   9.1220075985511305e-15   8.9955345304569134e-15   8.9947544024287154e-15   8.8553457021281903e-15   8.8578828130496990e-15   8.7059074757599341e-15   8.7117240762740099e-15   8.5475793803513437e-15   8.5566306215878013e-15   8.3807424964324429e-15   8.3929759893760427e-15   8.2057985052476885e-15   8.2211542378916579e-15   8.0231687010786513e-15   8.0415790971461641e-15   7.8332929424358843e-15   7.8546830107870011e-15   7.6366285863349860e-15   7.6609160973260737e-15   7.4336493666770817e-15   7.4607450629170046e-15   7.2248442494598292e-15   7.2546520729814265e-15   7.0107162473500343e-15   7.0431335794482642e-15   6.7917812056435905e-15   6.8266991206889915e-15   6.5685665527660027e-15   6.6058700899302799e-15   6.3416100342498833e-15   6.3811784751243106e-15   6.1114584053655783e-15   6.1531655749697533e-15   5.8786661271292614e-15   5.9223806935244077e-15   5.6437940172286782e-15   5.6893798155892643e-15   5.4074079075685883e-15   5.4547242643821030e-15   5.1700772750643524e-15   5.2189793492418924e-15   4.9323738733925486e-15   4.9827130078229824e-15   4.6948703549665022e-15   4.7464944284888142e-15   4.4581388846684296e-15   4.5108926883372143e-15   4.2227497756290119e-15   4.2764753791459836e-15   3.9892701023115480e-15   4.0438072339537703e-15   3.7582623367828265e-15   3.8134487760179531e-15   3.5302830015025691e-15   3.5859549617840023e-15   3.3058813176464202e-15   3.3618738462026749e-15   3.0855978906211841e-15   3.1417452640111304e-15   2.8699634034574014e-15   2.9260995279615527e-15   2.6594973390325477e-15   2.7154561462946107e-15   2.4547067297356734e-15   2.5103225821830768e-15   2.2560849348095434e-15   2.3111930204225173e-15   2.0641104497027070e-15   2.1185471839754241e-15   1.8792457635331714e-15   1.9328491757169586e-15   1.7019362281339857e-15   1.7545463574145281e-15   1.5326089982266772e-15   1.5840682772492184e-15   1.3716719985789973e-15   1.4218256365266264e-15   1.2195129420105566e-15   1.2682092896568499e-15   1.0764983928358446e-15   1.1235893145432934e-15   9.4297288535532730e-16   9.8831411267824443e-16   8.1925809589173238e-16   8.6270957577160432e-16   7.0565206273966074e-16   7.4707829616598840e-16   6.0242847479628267e-16   6.4169884252695248e-16   5.0983600653993749e-16   5.4682508102525427e-16   4.2809772189091597e-16   4.6268557311749353e-16   3.5741053564839675e-16   3.8948301857895106e-16   2.9794473976363657e-16   3.2739376929000955e-16   2.4984359333851696e-16   2.7656740487238814e-16   2.1322297663452864e-16   2.3712637076457926e-16   1.8817111234718609e-16   2.0916568453344352e-16   1.7474835316041537e-16   1.9275270670062378e-16   1.7298703606517846e-16   1.8792697816750102e-16   1.8289140512819290e-16   1.9470012553226813e-16   2.0443760003356792e-16   2.1305583188778067e-16   2.3757371521342031e-16   2.4294987790164977e-16   2.8221992362532348e-16   2.8431024715996401e-16   3.3826866757001157e-16   3.3703729846737682e-16   4.0558492583410260e-16   4.0100401000715287e-16   4.8400652452218664e-16   4.7605628035036554e-16   5.7334454073892388e-16   5.6201330204538630e-16   6.7338375254653394e-16   6.5866800014263993e-16   7.8388315900126675e-16   7.6578752453979977e-16   9.0457655654991331e-16   8.8311381531812410e-16   1.0351731851980978e-15   1.0103642261868394e-15   1.1753584289594403e-15   1.1472321990880941e-15   1.3247945695569202e-15   1.2933880086541113e-15   1.4831216043448550e-15   1.4484795540988884e-15   1.6499581091177571e-15   1.6121332047722115e-15   1.8249021646378451e-15   1.7839547102983394e-15   2.0075323106375681e-15   1.9635301346271754e-15   2.1974085834751305e-15   2.1504268729001701e-15   2.3940735530615432e-15   2.3441946662368719e-15   2.5970534396954989e-15   2.5443667207304416e-15   2.8058592434348123e-15   2.7504607981701208e-15   3.0199879414722227e-15   2.9619804090481135e-15   3.2389236756984984e-15   3.1784159806287261e-15   3.4621390149174533e-15   3.3992461058166064e-15   3.6890962168779779e-15   3.6239387844751153e-15   3.9192485224210380e-15   3.8519527134281088e-15   4.1520414755648245e-15   4.0827385907353730e-15   4.3869142634531236e-15   4.3157404360308236e-15   4.6233010559557450e-15   4.5503969273439114e-15   4.8606323808695502e-15   4.7861427584451287e-15   5.0983364872911903e-15   5.0224100019750303e-15   5.3358407300768455e-15   5.2586294685781044e-15   5.5725729448249155e-15   5.4942320912892888e-15   5.8079628213186458e-15   5.7286502806169062e-15   6.0414432924621572e-15   5.9613193119420735e-15   6.2724518850921469e-15   6.1916786616021575e-15   6.5004320846214054e-15   6.4191733855789536e-15   6.7248346711994496e-15   6.6432554273247027e-15   6.9451190444480574e-15   6.8633849629656104e-15   7.1607545279217075e-15   7.0790316825832827e-15   7.3712216397865804e-15   7.2896760830063517e-15   7.5760133601970630e-15   7.4948107135710138e-15   7.7746363367867876e-15   7.6939413928208138e-15   7.9666120839547766e-15   7.8865884096194303e-15   8.1514781298821245e-15   8.0722876732600976e-15   8.3287891397044923e-15   8.2505918359963292e-15   8.4981179821277911e-15   8.4210713629350137e-15   8.6590567679277450e-15   8.5833155802303371e-15   8.8112178313175042e-15   8.7369336502007390e-15   8.9542346608313603e-15   8.8815555244435193e-15   9.0877628030474843e-15   9.0168328361790699e-15   9.2114806882151180e-15   9.1424397287868569e-15   9.3250904158606103e-15   9.2580736469202155e-15   9.4283184878706329e-15   9.3634560636482056e-15   9.5209164798721911e-15   9.4583331355103230e-15   9.6026616594733488e-15   9.5424763066303304e-15   9.6733575446770896e-15   9.6156828302786844e-15   9.7328344040512970e-15   9.6777762047919505e-15   9.7809496631329261e-15   9.7286065015532371e-15   9.8175882178865878e-15   9.7680505576132758e-15   9.8426625138472944e-15   9.7960119320749724e-15   9.8561121257688084e-15   9.8124204853959783e-15   9.8579019871411199e-15   9.8172312144122546e-15   9.8480175600721736e-15   9.8104213186684654e-15   9.8264774261336546e-15   9.7919841274160430e-15   9.7933478332906576e-15   9.7618573914932673e-15   9.5470846567187556e-15   9.7208254860433291e-15   9.5737628292129628e-15   9.3252495716403241e-15   9.5030020417630817e-15   9.4776783357288839e-15   9.4210489610247521e-15   9.3992527301854755e-15   9.3284585275805727e-15   9.3100310495391090e-15   9.2253866093622813e-15   9.2103589256976562e-15   9.1120944840385609e-15   9.1004816411013970e-15   8.9888636451910053e-15   8.9806568668290474e-15   8.8559945216651163e-15   8.8511748039820339e-15   8.7138085010342414e-15   8.7123500818954825e-15   8.5626484957162895e-15   8.5645188893655957e-15   8.4028786933401018e-15   8.4080382357809924e-15   8.2348839006482617e-15   8.2432854436344809e-15   8.0590687166239779e-15   8.0706575082640916e-15   7.8758565865387039e-15   7.8905702799465167e-15   7.6856888009439650e-15   7.7034575401405517e-15   7.4890234238985353e-15   7.5097699861543928e-15   7.2863341938687382e-15   7.3099741670411129e-15   7.0781093724981232e-15   7.1045513557845928e-15   6.8648505721336489e-15   6.8939963946363267e-15   6.6470715374896678e-15   6.6788165036121986e-15   6.4252969102271890e-15   6.4595300521755067e-15   6.2000609607294138e-15   6.2366653108139590e-15   5.9719063023606137e-15   6.0107591751859708e-15   5.7413825800672194e-15   5.7823558699278708e-15   5.5090451498953102e-15   5.5520056417195606e-15   5.2754537344921908e-15   5.3202634236300976e-15   5.0411710775443380e-15   5.0876875097278005e-15   4.8067615914534965e-15   4.8548381993924550e-15   4.5727899944392563e-15   4.6222764513976892e-15   4.3398199424190960e-15   4.3905625309127220e-15   4.1084126879084390e-15   4.1602546646905650e-15   3.8791257119778372e-15   3.9319076845515650e-15   3.6525113885783879e-15   3.7060717062816587e-15   3.4291156567422490e-15   3.4832907880069651e-15   3.2094766943369104e-15   3.2641016345136050e-15   2.9941236344496784e-15   3.0490322935444331e-15   2.7835752852473239e-15   2.8386008892634901e-15   2.5783388723618549e-15   2.6333143721391129e-15   2.3789088333326116e-15   2.4336672976007171e-15   2.1857656132939487e-15   2.2401406335564165e-15   1.9993745108994947e-15   2.0532006062761831e-15   1.8201845614916724e-15   1.8732975702552808e-15   1.6486274480780840e-15   1.7008649324417033e-15   1.4851164692675395e-15   1.5363180970510589e-15   1.3300455375882668e-15   1.3800534738735196e-15   1.1837882318246844e-15   1.2324475193063023e-15   1.0466969018411329e-15   1.0938558298056191e-15   9.1910181188624980e-16   9.6461228617144296e-16   8.0131035045399787e-16   8.4502824852416773e-16   6.9360628699626727e-16   7.3539180603816311e-16   5.9624909249402146e-16   6.3596708449695996e-16   5.0947330824582171e-16   5.4699360554978653e-16   4.3348798583802832e-16   4.6868571678757312e-16   3.6847618136089118e-16   4.0123206889310009e-16   3.1459451369736121e-16   3.4479516407901765e-16   2.7197278990605983e-16   2.9951096524875652e-16   2.4071368981180761e-16   2.6548856628531554e-16   2.2089251980394703e-16   2.4280993090952182e-16   2.1255703152544418e-16   2.3152969487821851e-16   2.1572730647922409e-16   2.3167503401240990e-16   2.3039570798348456e-16   2.4324559884582137e-16   2.5652689910663249e-16   2.6621351575509450e-16   2.9405792854652681e-16   3.0052345394383300e-16   3.4289838109744358e-16   3.4609275795080898e-16   4.0293059730632820e-16   4.0281164889358198e-16   4.7400995396544294e-16   4.7054348651494230e-16   5.5596521663337764e-16   5.4912509975219779e-16   6.4859894840107442e-16   6.3836717884156326e-16   7.5168798717120293e-16   7.3805473384483071e-16   8.6498398411070653e-16   8.4794760848554901e-16   9.8821399925880859e-16   9.6778106375283292e-16   1.1210811632366421e-15   1.0972664096579137e-15   1.2632653862942430e-15   1.2360917051424935e-15   1.4144241362608717e-15   1.3839225116030377e-15   1.5741932615930277e-15   1.5404026905111900e-15   1.7421878627806331e-15   1.7051552688008649e-15   1.9180032288703794e-15   1.8777833447225554e-15   2.1012158066669102e-15   2.0578710434707942e-15   2.2913842218351683e-15   2.2449845183287659e-15   2.4880503439091235e-15   2.4386729991492235e-15   2.6907403868578944e-15   2.6384698733350677e-15   2.8989660591702952e-15   2.8438938138440642e-15   3.1122257240119494e-15   3.0544499386822640e-15   3.3300056226352114e-15   3.2696310009314559e-15   3.5517811056198957e-15   3.4889186115483274e-15   3.7770179004513053e-15   3.7117844911008378e-15   4.0051733915004092e-15   3.9376917339852432e-15   4.2356979363295219e-15   4.1660961140039538e-15   4.4680361811158459e-15   4.3964473891329539e-15   4.7016284087166465e-15   4.6281906226282604e-15   4.9359118723043170e-15   4.8607675213083344e-15   5.1703221696510036e-15   5.0936177994757385e-15   5.4042945874142584e-15   5.3261804958357003e-15   5.6372654668502498e-15   5.5578953502772159e-15   5.8686735675518437e-15   5.7882041486692442e-15   6.0979614106974279e-15   6.0165520539484231e-15   6.3245766209409025e-15   6.2423889617752023e-15   6.5479732735463960e-15   6.4651708180963003e-15   6.7676131899046643e-15   6.6843609218315278e-15   6.9829672441303081e-15   6.8994312363034648e-15   7.1935166389453403e-15   7.1098636379674179e-15   7.3987541520869195e-15   7.3151511883024293e-15   7.5981853610749640e-15   7.5147993383996772e-15   7.7913298292833620e-15   7.7083271275705365e-15   7.9777222777496048e-15   7.8952683437674164e-15   8.1569136875870342e-15   8.0751726397250853e-15   8.3284724002055059e-15   8.2476066286454940e-15   8.4919851488539518e-15   8.4121549169148241e-15   8.6470580592696719e-15   8.5684211130288870e-15   8.7933175985672932e-15   8.7160287798808678e-15   8.9304114797052623e-15   8.8546223374219717e-15   9.0580095100817922e-15   8.9838679218387269e-15   9.1758043891043917e-15   9.1034541812811859e-15   9.2835124513745613e-15   9.2130930238206122e-15   9.3808743463478506e-15   9.3125202967697211e-15   9.4676556564979298e-15   9.4014964042977111e-15   9.5436474407475444e-15   9.4798068522549473e-15   9.6086666909599536e-15   9.5472627115800142e-15   9.6625566842971150e-15   9.6037009874351853e-15   9.7051871449003479e-15   9.6489848574638832e-15   9.7364541381916570e-15   9.6830037663650061e-15   9.7562793915396421e-15   9.7056732699097606e-15   9.7646084489940077e-15   9.7169345595875471e-15   9.7614065343756064e-15   9.7167534907093510e-15   9.7466519693652206e-15   9.7051188568617398e-15   9.7203624956712390e-15   9.6820409677492107e-15   9.6826831983201515e-15   9.6474936395917805e-15   9.4333430295999148e-15   9.6023917546838631e-15   9.4440869873454623e-15   9.1932544892606835e-15   9.3698458406878612e-15   9.3412472904188936e-15   9.2844451906719727e-15   9.2594540668103627e-15   9.1887435084940602e-15   9.1670880193359960e-15   9.0828577221828182e-15   9.0645382396776808e-15   8.9670323117208871e-15   8.9520797322231443e-15   8.8415474957148736e-15   8.8299724595363523e-15   8.7067078988043655e-15   8.6985049208256056e-15   8.5628398487442598e-15   8.5579924060411761e-15   8.4102906927964602e-15   8.4087734801597165e-15   8.2494282627329533e-15   8.2512079392535449e-15   8.0806401981960868e-15   8.0856756094619031e-15   7.9043331299701296e-15   7.9125753858871519e-15   7.7209317640203684e-15   7.7323243152864711e-15   7.53087788