<?xml version="1.0"?>
<VTKFile type="UnstructuredGrid"  version="0.1"  >
<UnstructuredGrid>
<Piece  NumberOfPoints="16641" NumberOfCells="32768">
<Points>
<DataArray  type="Float64"  NumberOfComponents="3"  format="ascii">0 0 0  0.0078125 0 0  0.015625 0 0  0.0234375 0 0  0.03125 0 0  0.0390625 0 0  0.046875 0 0  0.0546875 0 0  0.0625 0 0  0.0703125 0 0  0.078125 0 0  0.0859375 0 0  0.09375 0 0  0.1015625 0 0  0.109375 0 0  0.1171875 0 0  0.125 0 0  0.1328125 0 0  0.140625 0 0  0.1484375 0 0  0.15625 0 0  0.1640625 0 0  0.171875 0 0  0.1796875 0 0  0.1875 0 0  0.1953125 0 0  0.203125 0 0  0.2109375 0 0  0.21875 0 0  0.2265625 0 0  0.234375 0 0  0.2421875 0 0  0.25 0 0  0.2578125 0 0  0.265625 0 0  0.2734375 0 0  0.28125 0 0  0.2890625 0 0  0.296875 0 0  0.3046875 0 0  0.3125 0 0  0.3203125 0 0  0.328125 0 0  0.3359375 0 0  0.34375 0 0  0.3515625 0 0  0.359375 0 0  0.3671875 0 0  0.375 0 0  0.3828125 0 0  0.390625 0 0  0.3984375 0 0  0.40625 0 0  0.4140625 0 0  0.421875 0 0  0.4296875 0 0  0.4375 0 0  0.4453125 0 0  0.453125 0 0  0.4609375 0 0  0.46875 0 0  0.4765625 0 0  0.484375 0 0  0.4921875 0 0  0.5 0 0  0.5078125 0 0  0.515625 0 0  0.5234375 0 0  0.53125 0 0  0.5390625 0 0  0.546875 0 0  0.5546875 0 0  0.5625 0 0  0.5703125 0 0  0.578125 0 0  0.5859375 0 0  0.59375 0 0  0.6015625 0 0  0.609375 0 0  0.6171875 0 0  0.625 0 0  0.6328125 0 0  0.640625 0 0  0.6484375 0 0  0.65625 0 0  0.6640625 0 0  0.671875 0 0  0.6796875 0 0  0.6875 0 0  0.6953125 0 0  0.703125 0 0  0.7109375 0 0  0.71875 0 0  0.7265625 0 0  0.734375 0 0  0.7421875 0 0  0.75 0 0  0.7578125 0 0  0.765625 0 0  0.7734375 0 0  0.78125 0 0  0.7890625 0 0  0.796875 0 0  0.8046875 0 0  0.8125 0 0  0.8203125 0 0  0.828125 0 0  0.8359375 0 0  0.84375 0 0  0.8515625 0 0  0.859375 0 0  0.8671875 0 0  0.875 0 0  0.8828125 0 0  0.890625 0 0  0.8984375 0 0  0.90625 0 0  0.9140625 0 0  0.921875 0 0  0.9296875 0 0  0.9375 0 0  0.9453125 0 0  0.953125 0 0  0.9609375 0 0  0.96875 0 0  0.9765625 0 0  0.984375 0 0  0.9921875 0 0  1 0 0  0 0.0078125 0  0.0078125 0.0078125 0  0.015625 0.0078125 0  0.0234375 0.0078125 0  0.03125 0.0078125 0  0.0390625 0.0078125 0  0.046875 0.0078125 0  0.0546875 0.0078125 0  0.0625 0.0078125 0  0.0703125 0.0078125 0  0.078125 0.0078125 0  0.0859375 0.0078125 0  0.09375 0.0078125 0  0.1015625 0.0078125 0  0.109375 0.0078125 0  0.1171875 0.0078125 0  0.125 0.0078125 0  0.1328125 0.0078125 0  0.140625 0.0078125 0  0.1484375 0.0078125 0  0.15625 0.0078125 0  0.1640625 0.0078125 0  0.171875 0.0078125 0  0.1796875 0.0078125 0  0.1875 0.0078125 0  0.1953125 0.0078125 0  0.203125 0.0078125 0  0.2109375 0.0078125 0  0.21875 0.0078125 0  0.2265625 0.0078125 0  0.234375 0.0078125 0  0.2421875 0.0078125 0  0.25 0.0078125 0  0.2578125 0.0078125 0  0.265625 0.0078125 0  0.2734375 0.0078125 0  0.28125 0.0078125 0  0.2890625 0.0078125 0  0.296875 0.0078125 0  0.3046875 0.0078125 0  0.3125 0.0078125 0  0.3203125 0.0078125 0  0.328125 0.0078125 0  0.3359375 0.0078125 0  0.34375 0.0078125 0  0.3515625 0.0078125 0  0.359375 0.0078125 0  0.3671875 0.0078125 0  0.375 0.0078125 0  0.3828125 0.0078125 0  0.390625 0.0078125 0  0.3984375 0.0078125 0  0.40625 0.0078125 0  0.4140625 0.0078125 0  0.421875 0.0078125 0  0.4296875 0.0078125 0  0.4375 0.0078125 0  0.4453125 0.0078125 0  0.453125 0.0078125 0  0.4609375 0.0078125 0  0.46875 0.0078125 0  0.4765625 0.0078125 0  0.484375 0.0078125 0  0.4921875 0.0078125 0  0.5 0.0078125 0  0.5078125 0.0078125 0  0.515625 0.0078125 0  0.5234375 0.0078125 0  0.53125 0.0078125 0  0.5390625 0.0078125 0  0.546875 0.0078125 0  0.5546875 0.0078125 0  0.5625 0.0078125 0  0.5703125 0.0078125 0  0.578125 0.0078125 0  0.5859375 0.0078125 0  0.59375 0.0078125 0  0.6015625 0.0078125 0  0.609375 0.0078125 0  0.6171875 0.0078125 0  0.625 0.0078125 0  0.6328125 0.0078125 0  0.640625 0.0078125 0  0.6484375 0.0078125 0  0.65625 0.0078125 0  0.6640625 0.0078125 0  0.671875 0.0078125 0  0.6796875 0.0078125 0  0.6875 0.0078125 0  0.6953125 0.0078125 0  0.703125 0.0078125 0  0.7109375 0.0078125 0  0.71875 0.0078125 0  0.7265625 0.0078125 0  0.734375 0.0078125 0  0.7421875 0.0078125 0  0.75 0.0078125 0  0.7578125 0.0078125 0  0.765625 0.0078125 0  0.7734375 0.0078125 0  0.78125 0.0078125 0  0.7890625 0.0078125 0  0.796875 0.0078125 0  0.8046875 0.0078125 0  0.8125 0.0078125 0  0.8203125 0.0078125 0  0.828125 0.0078125 0  0.8359375 0.0078125 0  0.84375 0.0078125 0  0.8515625 0.0078125 0  0.859375 0.0078125 0  0.8671875 0.0078125 0  0.875 0.0078125 0  0.8828125 0.0078125 0  0.890625 0.0078125 0  0.8984375 0.0078125 0  0.90625 0.0078125 0  0.9140625 0.0078125 0  0.921875 0.0078125 0  0.9296875 0.0078125 0  0.9375 0.0078125 0  0.9453125 0.0078125 0  0.953125 0.0078125 0  0.9609375 0.0078125 0  0.96875 0.0078125 0  0.9765625 0.0078125 0  0.984375 0.0078125 0  0.9921875 0.0078125 0  1 0.0078125 0  0 0.015625 0  0.0078125 0.015625 0  0.015625 0.015625 0  0.0234375 0.015625 0  0.03125 0.015625 0  0.0390625 0.015625 0  0.046875 0.015625 0  0.0546875 0.015625 0  0.0625 0.015625 0  0.0703125 0.015625 0  0.078125 0.015625 0  0.0859375 0.015625 0  0.09375 0.015625 0  0.1015625 0.015625 0  0.109375 0.015625 0  0.1171875 0.015625 0  0.125 0.015625 0  0.1328125 0.015625 0  0.140625 0.015625 0  0.1484375 0.015625 0  0.15625 0.015625 0  0.1640625 0.015625 0  0.171875 0.015625 0  0.1796875 0.015625 0  0.1875 0.015625 0  0.1953125 0.015625 0  0.203125 0.015625 0  0.2109375 0.015625 0  0.21875 0.015625 0  0.2265625 0.015625 0  0.234375 0.015625 0  0.2421875 0.015625 0  0.25 0.015625 0  0.2578125 0.015625 0  0.265625 0.015625 0  0.2734375 0.015625 0  0.28125 0.015625 0  0.2890625 0.015625 0  0.296875 0.015625 0  0.3046875 0.015625 0  0.3125 0.015625 0  0.3203125 0.015625 0  0.328125 0.015625 0  0.3359375 0.015625 0  0.34375 0.015625 0  0.3515625 0.015625 0  0.359375 0.015625 0  0.3671875 0.015625 0  0.375 0.015625 0  0.3828125 0.015625 0  0.390625 0.015625 0  0.3984375 0.015625 0  0.40625 0.015625 0  0.4140625 0.015625 0  0.421875 0.015625 0  0.4296875 0.015625 0  0.4375 0.015625 0  0.4453125 0.015625 0  0.453125 0.015625 0  0.4609375 0.015625 0  0.46875 0.015625 0  0.4765625 0.015625 0  0.484375 0.015625 0  0.4921875 0.015625 0  0.5 0.015625 0  0.5078125 0.015625 0  0.515625 0.015625 0  0.5234375 0.015625 0  0.53125 0.015625 0  0.5390625 0.015625 0  0.546875 0.015625 0  0.5546875 0.015625 0  0.5625 0.015625 0  0.5703125 0.015625 0  0.578125 0.015625 0  0.5859375 0.015625 0  0.59375 0.015625 0  0.6015625 0.015625 0  0.609375 0.015625 0  0.6171875 0.015625 0  0.625 0.015625 0  0.6328125 0.015625 0  0.640625 0.015625 0  0.6484375 0.015625 0  0.65625 0.015625 0  0.6640625 0.015625 0  0.671875 0.015625 0  0.6796875 0.015625 0  0.6875 0.015625 0  0.6953125 0.015625 0  0.703125 0.015625 0  0.7109375 0.015625 0  0.71875 0.015625 0  0.7265625 0.015625 0  0.734375 0.015625 0  0.7421875 0.015625 0  0.75 0.015625 0  0.7578125 0.015625 0  0.765625 0.015625 0  0.7734375 0.015625 0  0.78125 0.015625 0  0.7890625 0.015625 0  0.796875 0.015625 0  0.8046875 0.015625 0  0.8125 0.015625 0  0.8203125 0.015625 0  0.828125 0.015625 0  0.8359375 0.015625 0  0.84375 0.015625 0  0.8515625 0.015625 0  0.859375 0.015625 0  0.8671875 0.015625 0  0.875 0.015625 0  0.8828125 0.015625 0  0.890625 0.015625 0  0.8984375 0.015625 0  0.90625 0.015625 0  0.9140625 0.015625 0  0.921875 0.015625 0  0.9296875 0.015625 0  0.9375 0.015625 0  0.9453125 0.015625 0  0.953125 0.015625 0  0.9609375 0.015625 0  0.96875 0.015625 0  0.9765625 0.015625 0  0.984375 0.015625 0  0.9921875 0.015625 0  1 0.015625 0  0 0.0234375 0  0.0078125 0.0234375 0  0.015625 0.0234375 0  0.0234375 0.0234375 0  0.03125 0.0234375 0  0.0390625 0.0234375 0  0.046875 0.0234375 0  0.0546875 0.0234375 0  0.0625 0.0234375 0  0.0703125 0.0234375 0  0.078125 0.0234375 0  0.0859375 0.0234375 0  0.09375 0.0234375 0  0.1015625 0.0234375 0  0.109375 0.0234375 0  0.1171875 0.0234375 0  0.125 0.0234375 0  0.1328125 0.0234375 0  0.140625 0.0234375 0  0.1484375 0.0234375 0  0.15625 0.0234375 0  0.1640625 0.0234375 0  0.171875 0.0234375 0  0.1796875 0.0234375 0  0.1875 0.0234375 0  0.1953125 0.0234375 0  0.203125 0.0234375 0  0.2109375 0.0234375 0  0.21875 0.0234375 0  0.2265625 0.0234375 0  0.234375 0.0234375 0  0.2421875 0.0234375 0  0.25 0.0234375 0  0.2578125 0.0234375 0  0.265625 0.0234375 0  0.2734375 0.0234375 0  0.28125 0.0234375 0  0.2890625 0.0234375 0  0.296875 0.0234375 0  0.3046875 0.0234375 0  0.3125 0.0234375 0  0.3203125 0.0234375 0  0.328125 0.0234375 0  0.3359375 0.0234375 0  0.34375 0.0234375 0  0.3515625 0.0234375 0  0.359375 0.0234375 0  0.3671875 0.0234375 0  0.375 0.0234375 0  0.3828125 0.0234375 0  0.390625 0.0234375 0  0.3984375 0.0234375 0  0.40625 0.0234375 0  0.4140625 0.0234375 0  0.421875 0.0234375 0  0.4296875 0.0234375 0  0.4375 0.0234375 0  0.4453125 0.0234375 0  0.453125 0.0234375 0  0.4609375 0.0234375 0  0.46875 0.0234375 0  0.4765625 0.0234375 0  0.484375 0.0234375 0  0.4921875 0.0234375 0  0.5 0.0234375 0  0.5078125 0.0234375 0  0.515625 0.0234375 0  0.5234375 0.0234375 0  0.53125 0.0234375 0  0.5390625 0.0234375 0  0.546875 0.0234375 0  0.5546875 0.0234375 0  0.5625 0.0234375 0  0.5703125 0.0234375 0  0.578125 0.0234375 0  0.5859375 0.0234375 0  0.59375 0.0234375 0  0.6015625 0.0234375 0  0.609375 0.0234375 0  0.6171875 0.0234375 0  0.625 0.0234375 0  0.6328125 0.0234375 0  0.640625 0.0234375 0  0.6484375 0.0234375 0  0.65625 0.0234375 0  0.6640625 0.0234375 0  0.671875 0.0234375 0  0.6796875 0.0234375 0  0.6875 0.0234375 0  0.6953125 0.0234375 0  0.703125 0.0234375 0  0.7109375 0.0234375 0  0.71875 0.0234375 0  0.7265625 0.0234375 0  0.734375 0.0234375 0  0.7421875 0.0234375 0  0.75 0.0234375 0  0.7578125 0.0234375 0  0.765625 0.0234375 0  0.7734375 0.0234375 0  0.78125 0.0234375 0  0.7890625 0.0234375 0  0.796875 0.0234375 0  0.8046875 0.0234375 0  0.8125 0.0234375 0  0.8203125 0.0234375 0  0.828125 0.0234375 0  0.8359375 0.0234375 0  0.84375 0.0234375 0  0.8515625 0.0234375 0  0.859375 0.0234375 0  0.8671
[...]
<CellData  Scalars="f_1235"> 
<DataArray  type="Float64"  Name="f_1235"  format="ascii">5.4426877887669810e-12   5.4323315569212296e-12   5.4424716532181951e-12   5.5829544143322825e-12   5.4080672572664186e-12   5.5342267530996716e-12   5.3627195229618239e-12   5.4864413303541286e-12   5.3096266572177962e-12   5.4339560306287841e-12   5.2498453385527041e-12   5.3752553572231798e-12   5.1838711491933693e-12   5.3102715277374781e-12   5.1120180571125092e-12   5.2392287428895096e-12   5.0345368072876424e-12   5.1623716156036649e-12   4.9516568273660973e-12   5.0799345219492306e-12   4.8636030980398499e-12   4.9921470281278443e-12   4.7706036077624724e-12   4.8992402735524959e-12   4.6728928114167835e-12   4.8014508662851195e-12   4.5707132093164818e-12   4.6990229527807118e-12   4.4643159802332836e-12   4.5922091867335685e-12   4.3539610943576164e-12   4.4812710622153652e-12   4.2399171308554834e-12   4.3664788609900419e-12   4.1224609105262327e-12   4.2481113711420136e-12   4.0018770191666781e-12   4.1264554488603385e-12   3.8784572396720443e-12   4.0018054894783572e-12   3.7524999411846906e-12   3.8744628223608993e-12   3.6243094168108679e-12   3.7447350572262147e-12   3.4941951952265094e-12   3.6129353967983747e-12   3.3624713239033090e-12   3.4793819180781138e-12   3.2294556435818953e-12   3.3443968320865512e-12   3.0954690302663837e-12   3.2083057273025631e-12   2.9608346437555141e-12   3.0714368019405426e-12   2.8258771538516543e-12   2.9341200796388257e-12   2.6909219696087812e-12   2.7966866288883345e-12   2.5562944624961904e-12   2.6594677674275001e-12   2.4223191840857260e-12   2.5227942684989937e-12   2.2893190903464974e-12   2.3869955737329872e-12   2.1576147685509700e-12   2.2523989974705707e-12   2.0275236675382936e-12   2.1193289399867911e-12   1.8993593299325342e-12   1.9881061162945609e-12   1.7734306453693359e-12   1.8590467737526912e-12   1.6500411064621489e-12   1.7324619390864357e-12   1.5294880767145833e-12   1.6086566699088641e-12   1.4120620766292670e-12   1.4879293174847955e-12   1.2980460853582180e-12   1.3705708137944166e-12   1.1877148614103274e-12   1.2568639652387013e-12   1.0813342759966349e-12   1.1470827768296730e-12   9.7916067957810827e-13   1.0414917916522504e-12   8.8144028135048628e-13   9.4034545277924398e-13   7.8840855773029872e-13   8.4388749129134005e-13   7.0028968518005066e-13   7.5235034067936493e-13   6.1729600117284731e-13   6.6595457554847630e-13   5.3962749208807900e-13   5.8490838112530601e-13   4.6747131439317729e-13   5.0940705305916963e-13   4.0100133866007146e-13   4.3963252478048574e-13   3.4037773742883391e-13   3.7575293393675429e-13   2.8574659556849006e-13   3.1792221168819815e-13   2.3723956039041803e-13   2.6627971658018276e-13   1.9497352276135772e-13   2.2094989729659728e-13   1.5905033847100794e-13   1.8204199313841645e-13   1.2955658051919913e-13   1.4964977145032456e-13   1.0656333282782023e-13   1.2385130140057181e-13   9.0126017395064982e-14   1.0470876614539933e-13   8.0284262328866193e-14   9.2268313510783285e-14   7.7061805633560660e-14   8.6559944490216604e-14   8.0466438825605599e-14   8.7597441488219477e-14   9.0489987513187792e-14   9.5378334615316204e-14   1.0710833176999716e-13   1.0988390883554878e-13   1.3028146465440711e-13   1.3107924798164637e-13   1.5995358732816410e-13   1.5891331966128684e-13   1.9605324579837494e-13   1.9331909727127784e-13   2.3849350060300389e-13   2.3421372406588928e-13   2.8717213813162540e-13   2.8149870903270921e-13   3.4197191597824015e-13   3.3506016774574724e-13   4.0276084656181493e-13   3.9476909394875738e-13   4.6939251305111001e-13   4.6048167295170373e-13   5.4170642487076260e-13   5.3203962540381803e-13   6.1952840141975987e-13   6.0927059174162943e-13   7.0267099449161967e-13   6.9198854392887228e-13   7.9093393656046469e-13   7.7999423618463279e-13   8.8410462832072907e-13   8.7307568438069705e-13   9.8195864344248896e-13   9.7100867535838061e-13   1.0842602776606333e-12   1.0735573094662753e-12   1.1907631083238137e-12   1.1804745647685516e-12   1.3012105953283137e-12   1.2915028984664426e-12   1.4153366926193580e-12   1.4063748590606767e-12   1.5328664931637669e-12   1.5248137390897975e-12   1.6535168903057496e-12   1.6465342327708556e-12   1.7769972600418380e-12   1.7712431311431806e-12   1.9030101567597774e-12   1.8986400237878578e-12   2.0312520360024564e-12   2.0284180220408688e-12   2.1614139795683611e-12   2.1602644994586649e-12   2.2931824475865006e-12   2.2938618465328825e-12   2.4262400207856060e-12   2.4288882293625719e-12   2.5602661785229050e-12   2.5650183711539254e-12   2.6949380610970592e-12   2.7019243316827364e-12   2.8299312527912985e-12   2.8392762977634554e-12   2.9649205566334265e-12   2.9767433752245327e-12   3.0995807835265342e-12   3.1139943885415309e-12   3.2335875338169237e-12   3.2506986767746553e-12   3.3666179757437207e-12   3.3865268848111637e-12   3.4983516214127318e-12   3.5211517631274189e-12   3.6284711045562021e-12   3.6542489497234522e-12   3.7566629373419826e-12   3.7854977449149228e-12   3.8826182686324005e-12   3.9145818944301563e-12   4.0060336233221761e-12   4.0411903400156613e-12   4.1266116384020256e-12   4.1650179631332887e-12   4.2440617706078473e-12   4.2857663224471253e-12   4.3581010021316177e-12   4.4031443653801171e-12   4.4684545155633545e-12   4.5168691222600917e-12   4.5748563595323224e-12   4.6266663782816921e-12   4.6770500868921311e-12   4.7322713284009542e-12   4.7747893690624496e-12   4.8334291938117147e-12   4.8678385950464802e-12   4.9298958233866875e-12   4.9559734402884072e-12   5.0214382514856566e-12   5.0389814069037080e-12   5.1078352193135928e-12   5.1166623543167534e-12   5.1888776623223968e-12   5.1888289904539097e-12   5.2643691238430054e-12   5.2553073574429302e-12   5.3341261134239407e-12   5.3159373018648178e-12   5.3979783588290922e-12   5.3705729605232878e-12   5.4557689094973300e-12   5.4190832748194620e-12   5.5073540056329051e-12   5.4613526197171054e-12   5.5526025383221810e-12   5.4972816493687836e-12   5.5913947616179286e-12   5.5267885756086887e-12   5.6236195195081576e-12   5.5498110290990858e-12   5.6491683502594400e-12   5.5663073180380917e-12   5.6679225299893775e-12   5.5762453696825251e-12   5.6797229938718802e-12   5.5795013696553476e-12   5.6842959486325897e-12   5.5752021317360665e-12   5.6810572322094869e-12   5.5578286314969293e-12   5.6685684746496194e-12   5.4905582021259125e-12   5.6430063456511388e-12   4.8320767157280682e-12   5.6007244530048727e-12   5.5670751841995932e-12   5.4068376585825125e-12   5.5280981403795938e-12   5.5165217444460624e-12   5.4787127579787291e-12   5.4763122917900529e-12   5.4273695839352392e-12   5.4243969082532956e-12   5.3704050891740754e-12   5.3669509489611670e-12   5.3074400767059173e-12   5.3047077643864252e-12   5.2385573817679332e-12   5.2371889106538193e-12   5.1639254878359496e-12   5.1641993597084143e-12   5.0837370602620405e-12   5.0857674958816857e-12   4.9981971459254152e-12   5.0020252325359247e-12   4.9075209759475106e-12   4.9131526098743391e-12   4.8119337597849406e-12   4.8193558523116804e-12   4.7116707304429541e-12   4.7208585197815256e-12   4.6069770954391779e-12   4.6178976488212117e-12   4.4981078125338006e-12   4.5107218182793367e-12   4.3853272456491199e-12   4.3995900043289349e-12   4.2689087040370133e-12   4.2847707267009149e-12   4.1491339223365042e-12   4.1665413255962055e-12   4.0262924600320109e-12   4.0451872659801161e-12   3.9006810761705524e-12   3.9210014552842390e-12   3.7726030531564659e-12   3.7942835417075482e-12   3.6423675061440194e-12   3.6653392107029260e-12   3.5102886584799677e-12   3.5344794528551409e-12   3.3766851043282288e-12   3.4020198284412196e-12   3.2418790544217159e-12   3.2682797127199684e-12   3.1061955721734302e-12   3.1335815357611473e-12   2.9699617948457801e-12   2.9982500080271792e-12   2.8335061575839985e-12   2.8626113441458942e-12   2.6971575996547919e-12   2.7269924791006422e-12   2.5612447873133496e-12   2.5917202879077939e-12   2.4260953101327323e-12   2.4571207893190643e-12   2.2920349065187853e-12   2.3235183774273733e-12   2.1593866789494242e-12   2.1912350305017631e-12   2.0284703128032590e-12   2.0605895398805135e-12   1.8996013101185834e-12   1.9318967409219905e-12   1.7730902338873004e-12   1.8054667636502204e-12   1.6492419548583959e-12   1.6816042738734825e-12   1.5283549266752884e-12   1.5606077519011612e-12   1.4107204550295612e-12   1.4427687617558269e-12   1.2966220098145514e-12   1.3283712630247215e-12   1.1863345336904254e-12   1.2176909151975809e-12   1.0801237855299678e-12   1.1109944220508410e-12   9.7824569768304523e-13   1.0085388832318811e-12   8.8094576021563075e-13   9.1057117969342269e-13   7.8845843102386259e-13   8.1732737877428671e-13   7.0100657073112856e-13   7.2903216375309685e-13   6.1880090678729679e-13   6.4589829341456617e-13   5.4203952419385242e-13   5.6812609035143050e-13   4.7090739097578382e-13   4.9590295884475575e-13   4.0557591028113111e-13   4.2940293208683076e-13   3.4620251065338029e-13   3.6878625537821070e-13   2.9293026517402914e-13   3.1419899753432600e-13   2.4588754615522379e-13   2.6577270075503074e-13   2.0518771847277343e-13   2.2362406428813788e-13   1.7092886395655029e-13   1.8785466219396185e-13   1.4319354769393430e-13   1.5855069960739399e-13   1.2204861761588795e-13   1.3578280463329496e-13   1.0754504441737126e-13   1.1960585876567295e-13   9.9717798450196225e-14   1.1005886437977560e-13   9.8585765777753199e-14   1.0716485126610662e-13   1.0415170270293941e-13   1.1093082081966920e-13   1.1640223003060869e-13   1.2134772968843766e-13   1.3530786348805771e-13   1.3839051088135723e-13   1.6082308611768611e-13   1.6201813511782615e-13   1.9288645897186754e-13   1.9217370970096227e-13   2.3142076779675853e-13   2.2878461463494074e-13   2.7633320830468123e-13   2.7176267730866601e-13   3.2751561107048053e-13   3.2100438778257230e-13   3.8484470398962997e-13   3.7639114567297367e-13   4.4818240449329485e-13   4.3778954502906002e-13   5.1737615794718011e-13   5.0505169858579785e-13   5.9225929808673432e-13   5.7801559154521498e-13   6.7265145703384087e-13   6.5650547390611040e-13   7.5835899277601294e-13   7.4033228125771134e-13   8.4917545886927097e-13   8.2929409263336477e-13   9.4488210041098326e-13   9.2317661668383145e-13   1.0452483827012547e-12   1.0217537041893936e-12   1.1500325464971059e-12   1.1247878993288325e-12   1.2589821863560314e-12   1.2320310039170236e-12   1.3718348624169825e-12   1.3432246830513488e-12   1.4883187337231072e-12   1.4581010808515460e-12   1.6081532107991117e-12   1.5763834670583433e-12   1.7310496279468717e-12   1.6977869073693630e-12   1.8567119444867540e-12   1.8220189451344693e-12   1.9848374563589796e-12   1.9487803059775095e-12   2.1151175190551832e-12   2.0777656201358244e-12   2.2472383023964693e-12   2.2086641587478409e-12   2.3808815339388218e-12   2.3411605772640123e-12   2.5157252756560172e-12   2.4749356779801761e-12   2.6514446863238923e-12   2.6096671791480282e-12   2.7877128206546115e-12   2.7450304909385146e-12   2.9242014012293786e-12   2.8806994881083786e-12   3.0605816168774038e-12   3.0163473067982891e-12   3.1965249064511980e-12   3.1516471229801535e-12   3.3317037643427142e-12   3.2862729444221054e-12   3.4657925072240435e-12   3.4199003820528370e-12   3.5984680740268990e-12   3.5522074454311442e-12   3.7294107982625358e-12   3.6828753056931193e-12   3.8583051713726191e-12   3.8115890593826141e-12   3.9848406047624089e-12   3.9380384924774951e-12   4.1087121763258064e-12   4.0619188148125375e-12   4.2296213585126739e-12   4.1829313907248757e-12   4.3472767358549746e-12   4.3007844527156844e-12   4.4613946984964035e-12   4.4151937943313640e-12   4.5717001257713662e-12   4.5258834436344579e-12   4.6779270287041180e-12   4.6325863075546321e-12   4.7798191942769579e-12   4.7350448056559633e-12   4.8771307734004814e-12   4.8330114513945395e-12   4.9696268638649158e-12   4.9262494162695869e-12   5.0570840392468080e-12   5.0145330457331392e-12   5.1392908459797371e-12   5.0976483327956732e-12   5.2160482495119957e-12   5.1753933165755186e-12   5.2871700114706048e-12   5.2475784195573221e-12   5.3524829792998592e-12   5.3140266599520565e-12   5.4118272221231737e-12   5.3745737083656696e-12   5.4650559461896658e-12   5.4290676986185372e-12   5.5120349505847399e-12   5.4773686346575143e-12   5.5526412101039522e-12   5.5193471232732632e-12   5.5867595160778187e-12   5.5548818961755500e-12   5.6142745155909678e-12   5.5838551100140626e-12   5.6350508694085285e-12   5.6061434184141315e-12   5.6488802875909218e-12   5.6216008566870249e-12   5.6553305207135830e-12   5.6300262304817613e-12   5.6532953533511384e-12   5.6311044622792380e-12   5.6396656159984229e-12   5.6243256616387673e-12   5.6060555391492643e-12   5.6090337144744475e-12   5.5394768592543395e-12   5.5856710730921764e-12   5.4274747233299324e-12   5.5626920188619187e-12   5.4911964025447810e-12   5.3463836613908209e-12   5.4608570249990663e-12   5.4403063204945784e-12   5.4116498432565464e-12   5.3999207249493650e-12   5.3568128111182292e-12   5.3493687955657856e-12   5.2969532141173261e-12   5.2912172519774069e-12   5.2317286299780299e-12   5.2271944739185165e-12   5.1610058300026789e-12   5.1578151298583188e-12   5.0848318489699373e-12   5.0831803144290566e-12   5.0033384640985006e-12   5.0033579699428135e-12   4.9166998899294046e-12   4.9184632396665099e-12   4.8251153514869497e-12   4.8286555111375673e-12   4.7288015284150239e-12   4.7341257815028914e-12   4.6279889746499154e-12   4.6350875676032855e-12   4.5229201969211199e-12   4.5317714055884049e-12   4.4138484498356917e-12   4.4244215658663766e-12   4.3010368299284808e-12   4.3132939684463417e-12   4.1847575087883895e-12   4.1986547507732955e-12   4.0652910192706087e-12   4.0807791602109092e-12   3.9429255479536556e-12   3.9599506301421164e-12   3.8179562353707695e-12   3.8364599436040836e-12   3.6906844588847097e-12   3.7106044412213132e-12   3.5614171110764011e-12   3.5826872520229901e-12   3.4304658647171381e-12   3.4530165270215957e-12   3.2981464212463198e-12   3.3219046783816760e-12   3.1647777554655176e-12   3.1896676096102654e-12   3.0306813516549486e-12   3.0566239526202572e-12   2.8961804298975693e-12   2.9230942862171106e-12   2.7615991687594843e-12   2.7894003660397147e-12   2.6272619264094780e-12   2.6558643475791930e-12   2.4934924635700691e-12   2.5228080044961203e-12   2.3606131629331286e-12   2.3905519531853494e-12   2.2289442500311562e-12   2.2594148831674614e-12   2.0988030331621328e-12   2.1297127868173577e-12   1.9705031234652875e-12   2.0017581936968776e-12   1.8443536989019973e-12   1.8758594270217527e-12   1.7206587448249747e-12   1.7523198498066551e-12   1.5997163304560315e-12   1.6314371430698856e-12   1.4818178891899016e-12   1.5135025828879887e-12   1.3672475161323862e-12   1.3988003419285659e-12   1.2562812837743166e-12   1.2876068026311266e-12   1.1491865806481097e-12   1.1801898937541421e-12   1.0462214627380303e-12   1.0768084424522001e-12   9.4763403475036802e-13   9.7771155347431808e-13   8.5366185451239088e-13   8.8313800729859569e-13   7.6453135484864411e-13   7.9331568483390957e-13   6.8045730569287707e-13   7.0846102127140491e-13   6.0164229114174924e-13   6.2877847890063965e-13   5.2827622570505918e-13   5.5446006250842961e-13   4.6053589277010947e-13   4.8568484964872570e-13   3.9858452402708761e-13   4.2261856515765048e-13   3.4257140073911695e-13   3.6541317688234513e-13   2.9263149877694131e-13   3.1420653375814768e-13   2.4888516228016019e-13   2.6912203177947534e-13   2.1143781185451153e-13   2.3026831632859706e-13   1.8037969371009140e-13   1.9773902235833105e-13   1.5578566062633648e-13   1.7161254763427127e-13   1.3771499199805447e-13   1.5195186398287775e-13   1.2621125152131486e-13   1.3880436603884382e-13   1.2130218183110841e-13   1.3220175681418765e-13   1.2299963820268082e-13   1.3215997162519534e-13   1.3129955950563487e-13   1.3867913950028908e-13   1.4618197906932567e-13   1.5174358329563567e-13   1.6761107130675736e-13   1.7132185659393907e-13   1.9553523958910193e-13   1.9736682123770947e-13   2.2988723977071116e-13   2.2981575862715623e-13   2.7058434207811645e-13   2.6859052340535196e-13   3.1752853124770715e-13   3.1359772795302554e-13   3.7060674206348870e-13   3.6472897258701092e-13   4.2969113084618733e-13   4.2186110148072490e-13   4.9463938646791705e-13   4.8485650323591633e-13   5.6529506918648278e-13   5.5356344019505458e-13   6.4148799013853579e-13   6.2781641435997891e-13   7.2303462112441411e-13   7.0743656621089994e-13   8.0973853417787444e-13   7.9223210497152951e-13   9.0139087958379638e-13   8.8199877443257033e-13   9.9777088373490166e-13   9.7652033615459008e-13   1.0986463835103868e-12   1.0755690986910347e-12   1.2037743858474302e-12   1.1789064629337341e-12   1.3129016515669817e-12   1.2862834969081381e-12   1.4257653053506416e-12   1.3974415337855328e-12   1.5420934710361977e-12   1.5121127960429173e-12   1.6616059221561146e-12   1.6300210406637158e-12   1.7840147612624149e-12   1.7508822267307104e-12   1.9090251103103439e-12   1.8744051907424805e-12   2.0363358185254229e-12   2.0002923568179856e-12   2.1656401979380776e-12   2.1282404512695050e-12   2.2966267455840969e-12   2.2579412259137206e-12   2.4289799082018932e-12   2.3890822108512895e-12   2.5623808309690778e-12   2.5213474549173845e-12   2.6965081299423092e-12   2.6544182958455421e-12   2.8310386693413165e-12   2.7879741222180848e-12   2.9656483285358298e-12   2.9216931435291765e-12   3.1000127917757958e-12   3.0552531659520151e-12   3.2338083198024326e-12   3.1883323664561449e-12   3.3667125351047048e-12   3.3206100686615690e-12   3.4984051927073979e-12   3.4517675092506828e-12   3.6285689479446993e-12   3.5814886001173893e-12   3.7568901216586328e-12   3.7094606973586756e-12   3.8830594503636508e-12   3.8353753395604571e-12   4.0067728267833230e-12   3.9589289918075909e-12   4.1277320246571673e-12   4.0798237642182997e-12   4.2456454142168299e-12   4.1977681314988518e-12   4.3602286531110218e-12   4.3124776181213369e-12   4.4712053610541182e-12   4.4236754684088785e-12   4.5783077651679624e-12   4.5310933032228553e-12   4.6812773318021615e-12   4.6344717418302771e-12   4.7798653562901981e-12   4.7335609979789054e-12   4.8738335225584484e-12   4.8281214395951106e-12   4.9629544256457672e-12   4.9179241183345072e-12   5.0470120370501534e-12   5.0027512446401651e-12   5.1258021119773396e-12   5.0823966123786584e-12   5.1991324991927603e-12   5.1566659441813888e-12   5.2668233394041862e-12   5.2253771542779944e-12   5.3287070571522432e-12   5.2883604709178085e-12   5.3846280540428674e-12   5.3454583800127436e-12   5.4344418643994990e-12   5.3965252824383501e-12   5.4780133558849526e-12   5.4414267421767850e-12   5.5152131059310030e-12   5.4800380581953729e-12   5.5459101503417846e-12   5.5122417921979054e-12   5.5699572375039774e-12   5.5379236633779722e-12   5.5871602440008160e-12   5.5569661193710049e-12   5.5972145847905048e-12   5.5692393585680089e-12   5.5995796783440134e-12   5.5745929891096576e-12   5.5932824797742240e-12   5.5728655760236527e-12   5.5769197153634984e-12   5.5639781482095809e-12   5.5507025330752276e-12   5.5483133872337469e-12   5.5270501774558735e-12   5.5276938398205442e-12   5.4138151607287515e-12   5.5066198858707811e-12   5.4170724683690559e-12   5.2748315619739246e-12   5.3821595899487130e-12   5.3624454454857113e-12   5.3342683771640680e-12   5.3182930676584571e-12   5.2785042908205726e-12   5.2667091297007335e-12   5.2169104822334126e-12   5.2079839515382418e-12   5.1499268588551868e-12   5.1430101290244328e-12   5.0776416839137475e-12   5.0724341703026251e-12   5.0001337160345247e-12   4.9965940720399582e-12   4.9175258232576959e-12   4.9156879688802501e-12   4.8299794594016125e-12   4.8298825500695949e-12   4.7376840552340867e-12   4.7393534003031968e-12   4.6408496537202252e-12   4.6442945646518974e-12   4.5397024036241213e-12   4.5449183364005015e-12   4.4344817849967395e-12   4.4414529381100751e-12   4.3254387862