<?xml version="1.0"?>
<VTKFile type="UnstructuredGrid"  version="0.1"  >
<UnstructuredGrid>
<Piece  NumberOfPoints="16641" NumberOfCells="32768">
<Points>
<DataArray  type="Float64"  NumberOfComponents="3"  format="ascii">0 0 0  0.0078125 0 0  0.015625 0 0  0.0234375 0 0  0.03125 0 0  0.0390625 0 0  0.046875 0 0  0.0546875 0 0  0.0625 0 0  0.0703125 0 0  0.078125 0 0  0.0859375 0 0  0.09375 0 0  0.1015625 0 0  0.109375 0 0  0.1171875 0 0  0.125 0 0  0.1328125 0 0  0.140625 0 0  0.1484375 0 0  0.15625 0 0  0.1640625 0 0  0.171875 0 0  0.1796875 0 0  0.1875 0 0  0.1953125 0 0  0.203125 0 0  0.2109375 0 0  0.21875 0 0  0.2265625 0 0  0.234375 0 0  0.2421875 0 0  0.25 0 0  0.2578125 0 0  0.265625 0 0  0.2734375 0 0  0.28125 0 0  0.2890625 0 0  0.296875 0 0  0.3046875 0 0  0.3125 0 0  0.3203125 0 0  0.328125 0 0  0.3359375 0 0  0.34375 0 0  0.3515625 0 0  0.359375 0 0  0.3671875 0 0  0.375 0 0  0.3828125 0 0  0.390625 0 0  0.3984375 0 0  0.40625 0 0  0.4140625 0 0  0.421875 0 0  0.4296875 0 0  0.4375 0 0  0.4453125 0 0  0.453125 0 0  0.4609375 0 0  0.46875 0 0  0.4765625 0 0  0.484375 0 0  0.4921875 0 0  0.5 0 0  0.5078125 0 0  0.515625 0 0  0.5234375 0 0  0.53125 0 0  0.5390625 0 0  0.546875 0 0  0.5546875 0 0  0.5625 0 0  0.5703125 0 0  0.578125 0 0  0.5859375 0 0  0.59375 0 0  0.6015625 0 0  0.609375 0 0  0.6171875 0 0  0.625 0 0  0.6328125 0 0  0.640625 0 0  0.6484375 0 0  0.65625 0 0  0.6640625 0 0  0.671875 0 0  0.6796875 0 0  0.6875 0 0  0.6953125 0 0  0.703125 0 0  0.7109375 0 0  0.71875 0 0  0.7265625 0 0  0.734375 0 0  0.7421875 0 0  0.75 0 0  0.7578125 0 0  0.765625 0 0  0.7734375 0 0  0.78125 0 0  0.7890625 0 0  0.796875 0 0  0.8046875 0 0  0.8125 0 0  0.8203125 0 0  0.828125 0 0  0.8359375 0 0  0.84375 0 0  0.8515625 0 0  0.859375 0 0  0.8671875 0 0  0.875 0 0  0.8828125 0 0  0.890625 0 0  0.8984375 0 0  0.90625 0 0  0.9140625 0 0  0.921875 0 0  0.9296875 0 0  0.9375 0 0  0.9453125 0 0  0.953125 0 0  0.9609375 0 0  0.96875 0 0  0.9765625 0 0  0.984375 0 0  0.9921875 0 0  1 0 0  0 0.0078125 0  0.0078125 0.0078125 0  0.015625 0.0078125 0  0.0234375 0.0078125 0  0.03125 0.0078125 0  0.0390625 0.0078125 0  0.046875 0.0078125 0  0.0546875 0.0078125 0  0.0625 0.0078125 0  0.0703125 0.0078125 0  0.078125 0.0078125 0  0.0859375 0.0078125 0  0.09375 0.0078125 0  0.1015625 0.0078125 0  0.109375 0.0078125 0  0.1171875 0.0078125 0  0.125 0.0078125 0  0.1328125 0.0078125 0  0.140625 0.0078125 0  0.1484375 0.0078125 0  0.15625 0.0078125 0  0.1640625 0.0078125 0  0.171875 0.0078125 0  0.1796875 0.0078125 0  0.1875 0.0078125 0  0.1953125 0.0078125 0  0.203125 0.0078125 0  0.2109375 0.0078125 0  0.21875 0.0078125 0  0.2265625 0.0078125 0  0.234375 0.0078125 0  0.2421875 0.0078125 0  0.25 0.0078125 0  0.2578125 0.0078125 0  0.265625 0.0078125 0  0.2734375 0.0078125 0  0.28125 0.0078125 0  0.2890625 0.0078125 0  0.296875 0.0078125 0  0.3046875 0.0078125 0  0.3125 0.0078125 0  0.3203125 0.0078125 0  0.328125 0.0078125 0  0.3359375 0.0078125 0  0.34375 0.0078125 0  0.3515625 0.0078125 0  0.359375 0.0078125 0  0.3671875 0.0078125 0  0.375 0.0078125 0  0.3828125 0.0078125 0  0.390625 0.0078125 0  0.3984375 0.0078125 0  0.40625 0.0078125 0  0.4140625 0.0078125 0  0.421875 0.0078125 0  0.4296875 0.0078125 0  0.4375 0.0078125 0  0.4453125 0.0078125 0  0.453125 0.0078125 0  0.4609375 0.0078125 0  0.46875 0.0078125 0  0.4765625 0.0078125 0  0.484375 0.0078125 0  0.4921875 0.0078125 0  0.5 0.0078125 0  0.5078125 0.0078125 0  0.515625 0.0078125 0  0.5234375 0.0078125 0  0.53125 0.0078125 0  0.5390625 0.0078125 0  0.546875 0.0078125 0  0.5546875 0.0078125 0  0.5625 0.0078125 0  0.5703125 0.0078125 0  0.578125 0.0078125 0  0.5859375 0.0078125 0  0.59375 0.0078125 0  0.6015625 0.0078125 0  0.609375 0.0078125 0  0.6171875 0.0078125 0  0.625 0.0078125 0  0.6328125 0.0078125 0  0.640625 0.0078125 0  0.6484375 0.0078125 0  0.65625 0.0078125 0  0.6640625 0.0078125 0  0.671875 0.0078125 0  0.6796875 0.0078125 0  0.6875 0.0078125 0  0.6953125 0.0078125 0  0.703125 0.0078125 0  0.7109375 0.0078125 0  0.71875 0.0078125 0  0.7265625 0.0078125 0  0.734375 0.0078125 0  0.7421875 0.0078125 0  0.75 0.0078125 0  0.7578125 0.0078125 0  0.765625 0.0078125 0  0.7734375 0.0078125 0  0.78125 0.0078125 0  0.7890625 0.0078125 0  0.796875 0.0078125 0  0.8046875 0.0078125 0  0.8125 0.0078125 0  0.8203125 0.0078125 0  0.828125 0.0078125 0  0.8359375 0.0078125 0  0.84375 0.0078125 0  0.8515625 0.0078125 0  0.859375 0.0078125 0  0.8671875 0.0078125 0  0.875 0.0078125 0  0.8828125 0.0078125 0  0.890625 0.0078125 0  0.8984375 0.0078125 0  0.90625 0.0078125 0  0.9140625 0.0078125 0  0.921875 0.0078125 0  0.9296875 0.0078125 0  0.9375 0.0078125 0  0.9453125 0.0078125 0  0.953125 0.0078125 0  0.9609375 0.0078125 0  0.96875 0.0078125 0  0.9765625 0.0078125 0  0.984375 0.0078125 0  0.9921875 0.0078125 0  1 0.0078125 0  0 0.015625 0  0.0078125 0.015625 0  0.015625 0.015625 0  0.0234375 0.015625 0  0.03125 0.015625 0  0.0390625 0.015625 0  0.046875 0.015625 0  0.0546875 0.015625 0  0.0625 0.015625 0  0.0703125 0.015625 0  0.078125 0.015625 0  0.0859375 0.015625 0  0.09375 0.015625 0  0.1015625 0.015625 0  0.109375 0.015625 0  0.1171875 0.015625 0  0.125 0.015625 0  0.1328125 0.015625 0  0.140625 0.015625 0  0.1484375 0.015625 0  0.15625 0.015625 0  0.1640625 0.015625 0  0.171875 0.015625 0  0.1796875 0.015625 0  0.1875 0.015625 0  0.1953125 0.015625 0  0.203125 0.015625 0  0.2109375 0.015625 0  0.21875 0.015625 0  0.2265625 0.015625 0  0.234375 0.015625 0  0.2421875 0.015625 0  0.25 0.015625 0  0.2578125 0.015625 0  0.265625 0.015625 0  0.2734375 0.015625 0  0.28125 0.015625 0  0.2890625 0.015625 0  0.296875 0.015625 0  0.3046875 0.015625 0  0.3125 0.015625 0  0.3203125 0.015625 0  0.328125 0.015625 0  0.3359375 0.015625 0  0.34375 0.015625 0  0.3515625 0.015625 0  0.359375 0.015625 0  0.3671875 0.015625 0  0.375 0.015625 0  0.3828125 0.015625 0  0.390625 0.015625 0  0.3984375 0.015625 0  0.40625 0.015625 0  0.4140625 0.015625 0  0.421875 0.015625 0  0.4296875 0.015625 0  0.4375 0.015625 0  0.4453125 0.015625 0  0.453125 0.015625 0  0.4609375 0.015625 0  0.46875 0.015625 0  0.4765625 0.015625 0  0.484375 0.015625 0  0.4921875 0.015625 0  0.5 0.015625 0  0.5078125 0.015625 0  0.515625 0.015625 0  0.5234375 0.015625 0  0.53125 0.015625 0  0.5390625 0.015625 0  0.546875 0.015625 0  0.5546875 0.015625 0  0.5625 0.015625 0  0.5703125 0.015625 0  0.578125 0.015625 0  0.5859375 0.015625 0  0.59375 0.015625 0  0.6015625 0.015625 0  0.609375 0.015625 0  0.6171875 0.015625 0  0.625 0.015625 0  0.6328125 0.015625 0  0.640625 0.015625 0  0.6484375 0.015625 0  0.65625 0.015625 0  0.6640625 0.015625 0  0.671875 0.015625 0  0.6796875 0.015625 0  0.6875 0.015625 0  0.6953125 0.015625 0  0.703125 0.015625 0  0.7109375 0.015625 0  0.71875 0.015625 0  0.7265625 0.015625 0  0.734375 0.015625 0  0.7421875 0.015625 0  0.75 0.015625 0  0.7578125 0.015625 0  0.765625 0.015625 0  0.7734375 0.015625 0  0.78125 0.015625 0  0.7890625 0.015625 0  0.796875 0.015625 0  0.8046875 0.015625 0  0.8125 0.015625 0  0.8203125 0.015625 0  0.828125 0.015625 0  0.8359375 0.015625 0  0.84375 0.015625 0  0.8515625 0.015625 0  0.859375 0.015625 0  0.8671875 0.015625 0  0.875 0.015625 0  0.8828125 0.015625 0  0.890625 0.015625 0  0.8984375 0.015625 0  0.90625 0.015625 0  0.9140625 0.015625 0  0.921875 0.015625 0  0.9296875 0.015625 0  0.9375 0.015625 0  0.9453125 0.015625 0  0.953125 0.015625 0  0.9609375 0.015625 0  0.96875 0.015625 0  0.9765625 0.015625 0  0.984375 0.015625 0  0.9921875 0.015625 0  1 0.015625 0  0 0.0234375 0  0.0078125 0.0234375 0  0.015625 0.0234375 0  0.0234375 0.0234375 0  0.03125 0.0234375 0  0.0390625 0.0234375 0  0.046875 0.0234375 0  0.0546875 0.0234375 0  0.0625 0.0234375 0  0.0703125 0.0234375 0  0.078125 0.0234375 0  0.0859375 0.0234375 0  0.09375 0.0234375 0  0.1015625 0.0234375 0  0.109375 0.0234375 0  0.1171875 0.0234375 0  0.125 0.0234375 0  0.1328125 0.0234375 0  0.140625 0.0234375 0  0.1484375 0.0234375 0  0.15625 0.0234375 0  0.1640625 0.0234375 0  0.171875 0.0234375 0  0.1796875 0.0234375 0  0.1875 0.0234375 0  0.1953125 0.0234375 0  0.203125 0.0234375 0  0.2109375 0.0234375 0  0.21875 0.0234375 0  0.2265625 0.0234375 0  0.234375 0.0234375 0  0.2421875 0.0234375 0  0.25 0.0234375 0  0.2578125 0.0234375 0  0.265625 0.0234375 0  0.2734375 0.0234375 0  0.28125 0.0234375 0  0.2890625 0.0234375 0  0.296875 0.0234375 0  0.3046875 0.0234375 0  0.3125 0.0234375 0  0.3203125 0.0234375 0  0.328125 0.0234375 0  0.3359375 0.0234375 0  0.34375 0.0234375 0  0.3515625 0.0234375 0  0.359375 0.0234375 0  0.3671875 0.0234375 0  0.375 0.0234375 0  0.3828125 0.0234375 0  0.390625 0.0234375 0  0.3984375 0.0234375 0  0.40625 0.0234375 0  0.4140625 0.0234375 0  0.421875 0.0234375 0  0.4296875 0.0234375 0  0.4375 0.0234375 0  0.4453125 0.0234375 0  0.453125 0.0234375 0  0.4609375 0.0234375 0  0.46875 0.0234375 0  0.4765625 0.0234375 0  0.484375 0.0234375 0  0.4921875 0.0234375 0  0.5 0.0234375 0  0.5078125 0.0234375 0  0.515625 0.0234375 0  0.5234375 0.0234375 0  0.53125 0.0234375 0  0.5390625 0.0234375 0  0.546875 0.0234375 0  0.5546875 0.0234375 0  0.5625 0.0234375 0  0.5703125 0.0234375 0  0.578125 0.0234375 0  0.5859375 0.0234375 0  0.59375 0.0234375 0  0.6015625 0.0234375 0  0.609375 0.0234375 0  0.6171875 0.0234375 0  0.625 0.0234375 0  0.6328125 0.0234375 0  0.640625 0.0234375 0  0.6484375 0.0234375 0  0.65625 0.0234375 0  0.6640625 0.0234375 0  0.671875 0.0234375 0  0.6796875 0.0234375 0  0.6875 0.0234375 0  0.6953125 0.0234375 0  0.703125 0.0234375 0  0.7109375 0.0234375 0  0.71875 0.0234375 0  0.7265625 0.0234375 0  0.734375 0.0234375 0  0.7421875 0.0234375 0  0.75 0.0234375 0  0.7578125 0.0234375 0  0.765625 0.0234375 0  0.7734375 0.0234375 0  0.78125 0.0234375 0  0.7890625 0.0234375 0  0.796875 0.0234375 0  0.8046875 0.0234375 0  0.8125 0.0234375 0  0.8203125 0.0234375 0  0.828125 0.0234375 0  0.8359375 0.0234375 0  0.84375 0.0234375 0  0.8515625 0.0234375 0  0.859375 0.0234375 0  0.8671
[...]
<CellData  Scalars="f_3484"> 
<DataArray  type="Float64"  Name="f_3484"  format="ascii">1.3741318645789143e-12   1.3718150069954752e-12   1.3672362536118048e-12   1.3984572653938006e-12   1.3570390691225392e-12   1.3877951913620338e-12   1.3450075062870407e-12   1.3758955493507596e-12   1.3313505032364151e-12   1.3625082140502384e-12   1.3161539285292241e-12   1.3475777384869790e-12   1.2994742023810106e-12   1.3311287723117350e-12   1.2813601678650290e-12   1.3132046122940895e-12   1.2618597749270000e-12   1.2938523384730434e-12   1.2410223682080093e-12   1.2731211320194934e-12   1.2188995451814107e-12   1.2510625173560524e-12   1.1955454777186540e-12   1.2277306225961922e-12   1.1710170038850663e-12   1.2031822902089547e-12   1.1453736098296694e-12   1.1774770789074694e-12   1.1186773528445274e-12   1.1506772014937877e-12   1.0909927518347851e-12   1.1228474229487528e-12   1.0623866555214083e-12   1.0940549338764697e-12   1.0329280976371711e-12   1.0643692064961690e-12   1.0026881400435693e-12   1.0338618393681618e-12   9.7173970905082577e-13   1.0026063919970539e-12   9.4015742288158745e-13   9.7067821317017850e-13   9.0801741734729992e-13   9.3815426300479952e-13   8.7539716334333544e-13   9.0511292938112328e-13   8.4237528195086017e-13   8.7163384117772567e-13   8.0903135687388110e-13   8.3779767791968886e-13   7.7544574424034610e-13   8.0368597575989735e-13   7.4169937790648680e-13   7.6938093210402191e-13   7.0787357682843704e-13   7.3496520756402498e-13   6.7404984841672618e-13   7.0052172806880182e-13   6.4030969379605297e-13   6.6613348470547643e-13   6.0673441020273314e-13   6.3188333399434105e-13   5.7340489666711398e-13   5.9785379921890542e-13   5.4040145906191702e-13   5.6412687068497351e-13   5.0780361578802999e-13   5.3078380911882903e-13   4.7568990797001678e-13   4.9790494902993157e-13   4.4413770888615817e-13   4.6556950741769965e-13   4.1322303900207014e-13   4.3385539009984628e-13   3.8302038119885358e-13   4.0283900617132698e-13   3.5360250320362437e-13   3.7259508367466841e-13   3.2504028161980689e-13   3.4319648854555547e-13   2.9740253081701363e-13   3.1471405004397920e-13   2.7075583750900449e-13   2.8721639046309863e-13   2.4516440090448489e-13   2.6076975883470527e-13   2.2068987744897268e-13   2.3543787198561005e-13   1.9739123242677654e-13   2.1128176097105195e-13   1.7532459801248329e-13   1.8835962401196164e-13   1.5454313819811811e-13   1.6672668664109872e-13   1.3509692072503277e-13   1.4643506789837680e-13   1.1703279630117203e-13   1.2753365559983743e-13   1.0039428583081219e-13   1.1006798810058175e-13   8.5221475724814899e-14   9.4080144863154135e-14   7.1550921222023791e-14   7.9608645050802919e-14   5.9415558369297716e-14   6.6688354666396167e-14   4.8844624753046151e-14   5.5350402516913581e-14   3.9863588951996852e-14   4.5622105332780612e-14   3.2494089311923956e-14   3.7526902105725986e-14   2.6753881797191918e-14   3.1084297365556327e-14   2.2656797244773218e-14   2.6309814356619355e-14   2.0212707992713744e-14   2.3214957639616702e-14   1.9427504188244458e-14   2.1807185348112099e-14   2.0303079582925781e-14   2.2089891275048444e-14   2.2837326924376732e-14   2.4062396659909781e-14   2.7024143130642926e-14   2.7719951898860942e-14   3.2853443909961971e-14   3.3053747894146708e-14   4.0311188208848351e-14   4.0050937370626384e-14   4.9379411815057763e-14   4.8694665825541049e-14   6.0036270908146978e-14   5.8964111869816620e-14   7.2256094442356563e-14   7.0834538144889492e-14   8.6009446118622229e-14   8.4277349963350184e-14   1.0126319542109740e-13   9.9260164905168607e-14   1.1798059722399841e-13   1.1574689021205351e-13   1.3612138023384405e-13   1.3369781062871381e-13   1.5564184462921376e-13   1.5306968313701225e-13   1.7649496624174658e-13   1.7381584155087194e-13   1.9863051099838254e-13   1.9588630951804742e-13   2.2199515512037347e-13   2.1922791958007428e-13   2.4653261412492296e-13   2.4378444232023011e-13   2.7218377801403069e-13   2.6949672166057422e-13   2.9888685396560902e-13   2.9630281707408045e-13   3.2657751466991269e-13   3.2413815284737267e-13   3.5518905450286124e-13   3.5293567401489583e-13   3.8465254856539683e-13   3.8262600736403974e-13   4.1489701991111442e-13   4.1313762886666490e-13   4.4584961040496001e-13   4.4439703601874496e-13   4.7743575538435752e-13   4.7632892457604321e-13   5.0957936439157523e-13   5.0885637098995152e-13   5.4220300399853450e-13   5.4190101507525763e-13   5.7522808422395792e-13   5.7538325240544170e-13   6.0857504797792265e-13   6.0922242344782617e-13   6.4216356179384554e-13   6.4333700904942683e-13   6.7591271211367610e-13   6.7764482524305578e-13   7.0974119638621062e-13   7.1206322348357411e-13   7.4356752183018827e-13   7.4650928831804650e-13   7.7731020025481723e-13   7.8090003702319415e-13   8.1088794500410195e-13   8.1515261968310478e-13   8.4421986629456679e-13   8.4918451910413539e-13   8.7722566615598100e-13   8.8291374903958208e-13   9.0982583230770085e-13   9.1625905175106707e-13   9.4194182887815468e-13   9.4914009301214640e-13   9.7349628581170389e-13   9.8147765664824812e-13   1.0044131856621345e-12   1.0131938350246608e-12   1.0346180456135591e-12   1.0442122148877686e-12   1.0640380976741736e-12   1.0744580631378832e-12   1.0926024638432115e-12   1.1038585055509767e-12   1.1202423259888922e-12   1.1323427016860525e-12   1.1468910921922717e-12   1.1598420156171306e-12   1.1724845564004724e-12   1.1862901796728787e-12   1.1969610537408019e-12   1.2116234539780352e-12   1.2202616080059522e-12   1.2357807772506040e-12   1.2423300742551199e-12   1.2587039134803408e-12   1.2631132733859399e-12   1.2803375883843778e-12   1.2825611208650418e-12   1.3006296191324441e-12   1.3006267474552588e-12   1.3195310340353309e-12   1.3172666132100531e-12   1.3369961827687958e-12   1.3324406133705921e-12   1.3529828323589685e-12   1.3461121804557372e-12   1.3674522480233100e-12   1.3582483777800263e-12   1.3803692527613725e-12   1.3688199950663194e-12   1.3917022513156155e-12   1.3778016458985281e-12   1.4014232004748842e-12   1.3851718827193714e-12   1.4095074733538622e-12   1.3909133316679492e-12   1.4159335143510002e-12   1.3950127675570934e-12   1.4206820260399626e-12   1.3974603739915400e-12   1.4237340327002226e-12   1.3982432442883302e-12   1.4250660351227427e-12   1.3973037057613211e-12   1.4246371489436843e-12   1.3942949283422541e-12   1.4223531608871791e-12   1.3868536561921925e-12   1.4179607965708050e-12   1.3161018525624810e-12   1.4112742790311584e-12   1.3945605102656692e-12   1.3582153886854292e-12   1.3849337753676351e-12   1.3819419046046186e-12   1.3733897689058700e-12   1.3713454399253299e-12   1.3605298255688855e-12   1.3588307746569313e-12   1.3461616425785924e-12   1.3448060285530565e-12   1.3302896044644943e-12   1.3293459404654004e-12   1.3129478276983281e-12   1.3124522304808448e-12   1.2941780799734369e-12   1.2941448703096417e-12   1.2740261854691096e-12   1.2744592500556677e-12   1.2525412705045987e-12   1.2534393021675849e-12   1.2297755442930131e-12   1.2311342451137634e-12   1.2057841841363098e-12   1.2075972247837676e-12   1.1806252312642606e-12   1.1828847013520330e-12   1.1543594768734335e-12   1.1570561154103048e-12   1.1270503332034259e-12   1.1301736601364620e-12   1.0987636946754654e-12   1.1023020965215711e-12   1.0695677872873005e-12   1.0735085795718478e-12   1.0395330107976300e-12   1.0438624903648031e-12   1.0087317745611919e-12   1.0134352650285508e-12   9.7723832445483630e-13   9.8230022089302917e-13   9.4512856653791973e-13   9.5053238002919001e-13   9.1247988677111565e-13   9.1820828797640111e-13   8.7937096504607189e-13   8.8540582979395238e-13   8.4588158668150159e-13   8.5220404134685236e-13   8.1209244997524307e-13   8.1868291973216446e-13   7.7808497393165746e-13   7.8492323185943612e-13   7.4394110147304377e-13   7.5100631689862362e-13   7.0974310236428892e-13   7.1701389343385324e-13   6.7557337556554127e-13   6.8302786132878409e-13   6.4151425016760968e-13   6.4913010370669189e-13   6.0764778860724272e-13   6.1540229180809031e-13   5.7405558798027110e-13   5.8192568604351191e-13   5.4081858315934682e-13   5.4878094149753706e-13   5.0801685393697349e-13   5.1604791396470191e-13   4.7572942957746939e-13   4.8380546632529678e-13   4.4403410095618098e-13   4.5213127965433391e-13   4.1300723090920678e-13   4.2110166514802046e-13   3.8272357215435976e-13   3.9079138197118914e-13   3.5325608591209344e-13   3.6127345508666201e-13   3.2467576784083543e-13   3.3261900116927420e-13   2.9705147465923832e-13   3.0489705538200740e-13   2.7044976099825010e-13   2.7817440723678829e-13   2.4493471633763457e-13   2.5251543781126307e-13   2.2056781308781190e-13   2.2798196640141753e-13   1.9740775679674849e-13   2.0463309978297806e-13   1.7551034575097550e-13   1.8252509119472802e-13   1.5492833607031929e-13   1.6171120440346952e-13   1.3571131504250557e-13   1.4224158517318392e-13   1.1790558085126004e-13   1.2416314071953676e-13   1.0155403228057123e-13   1.0751942678470986e-13   8.6696064268350425e-14   9.2350542494925257e-14   7.3367473708253004e-14   7.8693033993196397e-14   6.1600372911244641e-14   6.6579806094276340e-14   5.1423112320026561e-14   5.6040043407040412e-14   4.2860212339394006e-14   4.7099139764439431e-14   3.5932304184678693e-14   3.9778637133533371e-14   3.0656080013733044e-14   3.4096173686459776e-14   2.7044253097184226e-14   3.0065441514386244e-14   2.5105526889007937e-14   2.7696153354867708e-14   2.4844574215823311e-14   2.6994019424497740e-14   2.6262026065121422e-14   2.7960733520371783e-14   2.9354469790809296e-14   3.0593969081195008e-14   3.4114457848645055e-14   3.4887384689400471e-14   4.0530525141143352e-14   4.0830639421285240e-14   4.8587217249695858e-14   4.8409417669750813e-14   5.8265127058684815e-14   5.7605463835656421e-14   6.9540942118534638e-14   6.8396626212192053e-14   8.2387500398090665e-14   8.0756909894714120e-14   9.6773855507651172e-14   9.4656540282479985e-14   1.1266535270582826e-13   1.1006203440305420e-13   1.3002370985080198e-13   1.2693628092476190e-13   1.4880711176841022e-13   1.4523863084747310e-13   1.6897031054660916e-13   1.6492499442820305e-13   1.9046473319180385e-13   1.8594794769377934e-13   2.1323860134820098e-13   2.0825684726766912e-13   2.3723705291123558e-13   2.3179795054094882e-13   2.6240227652351934e-13   2.5651454750396759e-13   2.8867364977230254e-13   2.8234709607327609e-13   3.1598788544181888e-13   3.0923336540094498e-13   3.4427918364499348e-13   3.3710858630987608e-13   3.7347939131828392e-13   3.6590560709970906e-13   4.0351816604846456e-13   3.9555505524957029e-13   4.3432314385167512e-13   4.2598550419944185e-13   4.6582011610366655e-13   4.5712364676488083e-13   4.9793320615453356e-13   4.8889446963374475e-13   5.3058505435391850e-13   5.2122143634551708e-13   5.6369700165178880e-13   5.5402666876331750e-13   5.9718928103850065e-13   5.8723113835433718e-13   6.3098120925349310e-13   6.2075485317595938e-13   6.6499138116674654e-13   6.5451705216617674e-13   6.9913786533771475e-13   6.8843639965920571e-13   7.3333840143614889e-13   7.2243118039977824e-13   7.6751059915926650e-13   7.5641949773134391e-13   8.0157213612805735e-13   7.9031946927054067e-13   8.3544095554717362e-13   8.2404942511669838e-13   8.6903546480095050e-13   8.5752810417408887e-13   9.0227473124815778e-13   8.9067484933180523e-13   9.3507867869409545e-13   9.2340980321895809e-13   9.6736827666849232e-13   9.5565409630525584e-13   9.9906573346692650e-13   9.8733004265825308e-13   1.0300946836233985e-12   1.0183613222735790e-12   1.0603803693826996e-12   1.0486731654280437e-12   1.0898498228259993e-12   1.0781925330602191e-12   1.1184320393864061e-12   1.1068482916080315e-12   1.1460581493808594e-12   1.1345713836664784e-12   1.1726615823698348e-12   1.1612949929341778e-12   1.1981782292139091e-12   1.1869547046083530e-12   1.2225465905289594e-12   1.2114886569354891e-12   1.2457079284125512e-12   1.2348376897979848e-12   1.2676064023614571e-12   1.2569454814612843e-12   1.2881892010361662e-12   1.2777586805789609e-12   1.3074066652429851e-12   1.2972270265471598e-12   1.3252124001489803e-12   1.3153034607008889e-12   1.3415633745847187e-12   1.3319442228291482e-12   1.3564200055968900e-12   1.3471089321341530e-12   1.3697462202429254e-12   1.3607606457414950e-12   1.3815094821476743e-12   1.3728658854093541e-12   1.3916807508350281e-12   1.3833946122891781e-12   1.4002343112821163e-12   1.3923201194648803e-12   1.4071472946123024e-12   1.3996187721210707e-12   1.4123984275104966e-12   1.4052694718950130e-12   1.4159646465422473e-12   1.4092525881506656e-12   1.4178114200917207e-12   1.4115478921698736e-12   1.4178639020158606e-12   1.4121308300672758e-12   1.4159216282109605e-12   1.4109674294702556e-12   1.4114489088273227e-12   1.4080179039456425e-12   1.4036092880683077e-12   1.4033098311946499e-12   1.3702256778175339e-12   1.3974623060322486e-12   1.3771120628870843e-12   1.3412851148009732e-12   1.3675647384027731e-12   1.3635939836447567e-12   1.3556410078692699e-12   1.3525876944812348e-12   1.3422143347903331e-12   1.3397880594466873e-12   1.3273406737690471e-12   1.3253877480149646e-12   1.3110277556952490e-12   1.3095186132051883e-12   1.2932980160525457e-12   1.2922402147990450e-12   1.2741869497156867e-12   1.2735903784387779e-12   1.2537375130441514e-12   1.2536074919797454e-12   1.2319976050331275e-12   1.2323351358739964e-12   1.2090189754177559e-12   1.2098218461460543e-12   1.1848566919487257e-12   1.1861203008124153e-12   1.1595688300290356e-12   1.1612866968846006e-12   1.1332162514571198e-12   1.1353803281397346e-12   1.1058624200118516e-12   1.1084632827029359e-12   1.0775732295003549e-12   1.0806002061662906e-12   1.0484168359761999e-12   1.0518580960221250e-12   1.0184634896754726e-12   1.0223061124736955e-12   9.8778536180643463e-13   9.9201539418965883e-13   9.5645637078732027e-13   9.6105887900696296e-13   9.2455200299225890e-13   9.2951111987214319e-13   8.9214912985549586e-13   8.9744810242555265e-13   8.5932582490254854e-13   8.6494705958451942e-13   8.2616117203797968e-13   8.3208628316306460e-13   7.9273507817669172e-13   7.9894493448071730e-13   7.5912807944616336e-13   7.6560285319335410e-13   7.2542114684926855e-13   7.3214036353100082e-13   6.9169549168312828e-13   6.9863808098912745e-13   6.5803237020034420e-13   6.6517671820261325e-13   6.2451288739427758e-13   6.3183688908615768e-13   5.9121780187002971e-13   5.9869891571032405e-13   5.5822733110044915e-13   5.6584263387405272e-13   5.2562095822609266e-13   5.3334720113675502e-13   4.9347724143421605e-13   5.0129090548318984e-13   4.6187362344684996e-13   4.6975097799118491e-13   4.3088624498685034e-13   4.3880340425662125e-13   4.0058976290744853e-13   4.0852274431499958e-13   3.7105716909570037e-13   3.7898195075429176e-13   3.4235961472501234e-13   3.5025219374840739e-13   3.1456623884543460e-13   3.2240268963467392e-13   2.8774400249150383e-13   2.9550053405508634e-13   2.6195752707430226e-13   2.6961054032361334e-13   2.3726893776244188e-13   2.4479508325480860e-13   2.1373771508085662e-13   2.2111394892522098e-13   1.9142055170274987e-13   1.9862419075674140e-13   1.7037121459268350e-13   1.7737999156111722e-13   1.5064041667938108e-13   1.5743253387871785e-13   1.3227569412198349e-13   1.3882987574645985e-13   1.1532129207723559e-13   1.2161683571156265e-13   9.9818058031428465e-14   1.0583488443066560e-13   8.5803343308331657e-14   9.1522044706952766e-14   7.3310913130214845e-14   7.8712800191971271e-14   6.2370865400494930e-14   6.7438012285423942e-14   5.3009558216355261e-14   5.7724845463158714e-14   4.5249546144324945e-14   4.9596702103968881e-14   3.9109526089176295e-14   4.3073166223491897e-14   3.4604292257608747e-14   3.8169955961436729e-14   3.1744700462558789e-14   3.4898886030085659e-14   3.0537641976299959e-14   3.3267839071833621e-14   3.0986026992153009e-14   3.3280746752620335e-14   3.3088777555359359e-14   3.4937580282909692e-14   3.6840830150133741e-14   3.8234350452543549e-14   4.2233148047478479e-14   4.3163117368135140e-14   4.9252742924732708e-14   4.9712009396840424e-14   5.7882706237380761e-14   5.7865251862420721e-14   6.8102249820588184e-14   6.7603205029146234e-14   7.9886756284398396e-14   7.8902411711540216e-14   9.3207838045557423e-14   9.1735653044386946e-14   1.0803340559279212e-13   1.0607201493408938e-13   1.2432774533205085e-13   1.2187696182118339e-13   1.4205160499010187e-13   1.3911242039956945e-13   1.6116228878265002e-13   1.5773687103272496e-13   1.8161375980836736e-13   1.7770544773010432e-13   2.0335675056251053e-13   1.9897004662562015e-13   2.2633888313537674e-13   2.2147944123197481e-13   2.5050479419617269e-13   2.4517940676008577e-13   2.7579626773686345e-13   2.7001284928155245e-13   3.0215237710602808e-13   2.9591994506551170e-13   3.2950963015806360e-13   3.2283828336783903e-13   3.5780212350456985e-13   3.5070301728659697e-13   3.8696170054799895e-13   3.7944701954747750e-13   4.1691811485953570e-13   4.0900104472316423e-13   4.4759920153785031e-13   4.3929389618360143e-13   4.7893104887009164e-13   4.7025259655327322e-13   5.1083817699223172e-13   5.0180256474114682e-13   5.4324372174441900e-13   5.3386779508774095e-13   5.7606961620154475e-13   5.6637103926224168e-13   6.0923678116090844e-13   5.9923399439219321e-13   6.4266531499315523e-13   6.3237749071266049e-13   6.7627468607842356e-13   6.6572168141710379e-13   7.0998392704821432e-13   6.9918623662008210e-13   7.4371182890109930e-13   7.3269053483481598e-13   7.7737713779127534e-13   7.6615385906600071e-13   8.1089874851966759e-13   7.9949558940743230e-13   8.4419590335589621e-13   8.3263539878146758e-13   8.7718838339528332e-13   8.6549344469947324e-13   9.0979670223337991e-13   8.9799056209780162e-13   9.4194229727583296e-13   9.3004845448098074e-13   9.7354772063375008e-13   9.6158988114019508e-13   1.0045368226552037e-12   9.9253884332593733e-13   1.0348349360461666e-12   1.0228207670260618e-12   1.0643690557049268e-12   1.0523626818311654e-12   1.0930680132177702e-12   1.0810933962716239e-12   1.1208626479093435e-12   1.1089436679026944e-12   1.1476859722928101e-12   1.1358463697140154e-12   1.1734733312105251e-12   1.1617366491388867e-12   1.1981625568596088e-12   1.1865520841316446e-12   1.2216941145450293e-12   1.2102328286361014e-12   1.2440112429456472e-12   1.2327217554193091e-12   1.2650600855238713e-12   1.2539645868867054e-12   1.2847898112359262e-12   1.2739100199042380e-12   1.3031527263041449e-12   1.2925098394764269e-12   1.3201043689505443e-12   1.3097190205660022e-12   1.3356035897758315e-12   1.3254958174324891e-12   1.3496126008601863e-12   1.3398018308012734e-12   1.3620969887190192e-12   1.3526020565247866e-12   1.3730256557187531e-12   1.3638648972751273e-12   1.3823706395730684e-12   1.3735621254477938e-12   1.3901066917973856e-12   1.3816687745362540e-12   1.3962103715948540e-12   1.3881629196199994e-12   1.4006581189579413e-12   1.3930253047837265e-12   1.4034222151542198e-12   1.3962388083152180e-12   1.4044627779724740e-12   1.3977879570486046e-12   1.4037152397827068e-12   1.3976596127055097e-12   1.4010908623490144e-12   1.3958490417142366e-12   1.3966134766976905e-12   1.3923840975398050e-12   1.3911168687999269e-12   1.3873801035990343e-12   1.3572326377014546e-12   1.3812221555525208e-12   1.3584968989608634e-12   1.3225616166703937e-12   1.3482841944077582e-12   1.3440016652374325e-12   1.3360665736975995e-12   1.3323975929818702e-12   1.3222463768650052e-12   1.3191932773234603e-12   1.3069615352859642e-12   1.3044460376124932e-12   1.2902659277241511e-12   1.2882392481536716e-12   1.2721955966333754e-12   1.2706404318160643e-12   1.2527885471425390e-12   1.2517016341860596e-12   1.2320877970754690e-12   1.2314693163517164e-12   1.2101409913481497e-12   1.2099905345426854e-12   1.1869997053993782e-12   1.1873151778225936e-12   1.1627189274323404e-12   1.1634964259166056e-12   1.1373566956698973e-12   1.1385906402076688e-12   1.1109738313864665e-12   1.1126571255198699e-12   1.0836337178