<?xml version="1.0"?>
<VTKFile type="UnstructuredGrid"  version="0.1"  >
<UnstructuredGrid>
<Piece  NumberOfPoints="16641" NumberOfCells="32768">
<Points>
<DataArray  type="Float64"  NumberOfComponents="3"  format="ascii">0 0 0  0.0078125 0 0  0.015625 0 0  0.0234375 0 0  0.03125 0 0  0.0390625 0 0  0.046875 0 0  0.0546875 0 0  0.0625 0 0  0.0703125 0 0  0.078125 0 0  0.0859375 0 0  0.09375 0 0  0.1015625 0 0  0.109375 0 0  0.1171875 0 0  0.125 0 0  0.1328125 0 0  0.140625 0 0  0.1484375 0 0  0.15625 0 0  0.1640625 0 0  0.171875 0 0  0.1796875 0 0  0.1875 0 0  0.1953125 0 0  0.203125 0 0  0.2109375 0 0  0.21875 0 0  0.2265625 0 0  0.234375 0 0  0.2421875 0 0  0.25 0 0  0.2578125 0 0  0.265625 0 0  0.2734375 0 0  0.28125 0 0  0.2890625 0 0  0.296875 0 0  0.3046875 0 0  0.3125 0 0  0.3203125 0 0  0.328125 0 0  0.3359375 0 0  0.34375 0 0  0.3515625 0 0  0.359375 0 0  0.3671875 0 0  0.375 0 0  0.3828125 0 0  0.390625 0 0  0.3984375 0 0  0.40625 0 0  0.4140625 0 0  0.421875 0 0  0.4296875 0 0  0.4375 0 0  0.4453125 0 0  0.453125 0 0  0.4609375 0 0  0.46875 0 0  0.4765625 0 0  0.484375 0 0  0.4921875 0 0  0.5 0 0  0.5078125 0 0  0.515625 0 0  0.5234375 0 0  0.53125 0 0  0.5390625 0 0  0.546875 0 0  0.5546875 0 0  0.5625 0 0  0.5703125 0 0  0.578125 0 0  0.5859375 0 0  0.59375 0 0  0.6015625 0 0  0.609375 0 0  0.6171875 0 0  0.625 0 0  0.6328125 0 0  0.640625 0 0  0.6484375 0 0  0.65625 0 0  0.6640625 0 0  0.671875 0 0  0.6796875 0 0  0.6875 0 0  0.6953125 0 0  0.703125 0 0  0.7109375 0 0  0.71875 0 0  0.7265625 0 0  0.734375 0 0  0.7421875 0 0  0.75 0 0  0.7578125 0 0  0.765625 0 0  0.7734375 0 0  0.78125 0 0  0.7890625 0 0  0.796875 0 0  0.8046875 0 0  0.8125 0 0  0.8203125 0 0  0.828125 0 0  0.8359375 0 0  0.84375 0 0  0.8515625 0 0  0.859375 0 0  0.8671875 0 0  0.875 0 0  0.8828125 0 0  0.890625 0 0  0.8984375 0 0  0.90625 0 0  0.9140625 0 0  0.921875 0 0  0.9296875 0 0  0.9375 0 0  0.9453125 0 0  0.953125 0 0  0.9609375 0 0  0.96875 0 0  0.9765625 0 0  0.984375 0 0  0.9921875 0 0  1 0 0  0 0.0078125 0  0.0078125 0.0078125 0  0.015625 0.0078125 0  0.0234375 0.0078125 0  0.03125 0.0078125 0  0.0390625 0.0078125 0  0.046875 0.0078125 0  0.0546875 0.0078125 0  0.0625 0.0078125 0  0.0703125 0.0078125 0  0.078125 0.0078125 0  0.0859375 0.0078125 0  0.09375 0.0078125 0  0.1015625 0.0078125 0  0.109375 0.0078125 0  0.1171875 0.0078125 0  0.125 0.0078125 0  0.1328125 0.0078125 0  0.140625 0.0078125 0  0.1484375 0.0078125 0  0.15625 0.0078125 0  0.1640625 0.0078125 0  0.171875 0.0078125 0  0.1796875 0.0078125 0  0.1875 0.0078125 0  0.1953125 0.0078125 0  0.203125 0.0078125 0  0.2109375 0.0078125 0  0.21875 0.0078125 0  0.2265625 0.0078125 0  0.234375 0.0078125 0  0.2421875 0.0078125 0  0.25 0.0078125 0  0.2578125 0.0078125 0  0.265625 0.0078125 0  0.2734375 0.0078125 0  0.28125 0.0078125 0  0.2890625 0.0078125 0  0.296875 0.0078125 0  0.3046875 0.0078125 0  0.3125 0.0078125 0  0.3203125 0.0078125 0  0.328125 0.0078125 0  0.3359375 0.0078125 0  0.34375 0.0078125 0  0.3515625 0.0078125 0  0.359375 0.0078125 0  0.3671875 0.0078125 0  0.375 0.0078125 0  0.3828125 0.0078125 0  0.390625 0.0078125 0  0.3984375 0.0078125 0  0.40625 0.0078125 0  0.4140625 0.0078125 0  0.421875 0.0078125 0  0.4296875 0.0078125 0  0.4375 0.0078125 0  0.4453125 0.0078125 0  0.453125 0.0078125 0  0.4609375 0.0078125 0  0.46875 0.0078125 0  0.4765625 0.0078125 0  0.484375 0.0078125 0  0.4921875 0.0078125 0  0.5 0.0078125 0  0.5078125 0.0078125 0  0.515625 0.0078125 0  0.5234375 0.0078125 0  0.53125 0.0078125 0  0.5390625 0.0078125 0  0.546875 0.0078125 0  0.5546875 0.0078125 0  0.5625 0.0078125 0  0.5703125 0.0078125 0  0.578125 0.0078125 0  0.5859375 0.0078125 0  0.59375 0.0078125 0  0.6015625 0.0078125 0  0.609375 0.0078125 0  0.6171875 0.0078125 0  0.625 0.0078125 0  0.6328125 0.0078125 0  0.640625 0.0078125 0  0.6484375 0.0078125 0  0.65625 0.0078125 0  0.6640625 0.0078125 0  0.671875 0.0078125 0  0.6796875 0.0078125 0  0.6875 0.0078125 0  0.6953125 0.0078125 0  0.703125 0.0078125 0  0.7109375 0.0078125 0  0.71875 0.0078125 0  0.7265625 0.0078125 0  0.734375 0.0078125 0  0.7421875 0.0078125 0  0.75 0.0078125 0  0.7578125 0.0078125 0  0.765625 0.0078125 0  0.7734375 0.0078125 0  0.78125 0.0078125 0  0.7890625 0.0078125 0  0.796875 0.0078125 0  0.8046875 0.0078125 0  0.8125 0.0078125 0  0.8203125 0.0078125 0  0.828125 0.0078125 0  0.8359375 0.0078125 0  0.84375 0.0078125 0  0.8515625 0.0078125 0  0.859375 0.0078125 0  0.8671875 0.0078125 0  0.875 0.0078125 0  0.8828125 0.0078125 0  0.890625 0.0078125 0  0.8984375 0.0078125 0  0.90625 0.0078125 0  0.9140625 0.0078125 0  0.921875 0.0078125 0  0.9296875 0.0078125 0  0.9375 0.0078125 0  0.9453125 0.0078125 0  0.953125 0.0078125 0  0.9609375 0.0078125 0  0.96875 0.0078125 0  0.9765625 0.0078125 0  0.984375 0.0078125 0  0.9921875 0.0078125 0  1 0.0078125 0  0 0.015625 0  0.0078125 0.015625 0  0.015625 0.015625 0  0.0234375 0.015625 0  0.03125 0.015625 0  0.0390625 0.015625 0  0.046875 0.015625 0  0.0546875 0.015625 0  0.0625 0.015625 0  0.0703125 0.015625 0  0.078125 0.015625 0  0.0859375 0.015625 0  0.09375 0.015625 0  0.1015625 0.015625 0  0.109375 0.015625 0  0.1171875 0.015625 0  0.125 0.015625 0  0.1328125 0.015625 0  0.140625 0.015625 0  0.1484375 0.015625 0  0.15625 0.015625 0  0.1640625 0.015625 0  0.171875 0.015625 0  0.1796875 0.015625 0  0.1875 0.015625 0  0.1953125 0.015625 0  0.203125 0.015625 0  0.2109375 0.015625 0  0.21875 0.015625 0  0.2265625 0.015625 0  0.234375 0.015625 0  0.2421875 0.015625 0  0.25 0.015625 0  0.2578125 0.015625 0  0.265625 0.015625 0  0.2734375 0.015625 0  0.28125 0.015625 0  0.2890625 0.015625 0  0.296875 0.015625 0  0.3046875 0.015625 0  0.3125 0.015625 0  0.3203125 0.015625 0  0.328125 0.015625 0  0.3359375 0.015625 0  0.34375 0.015625 0  0.3515625 0.015625 0  0.359375 0.015625 0  0.3671875 0.015625 0  0.375 0.015625 0  0.3828125 0.015625 0  0.390625 0.015625 0  0.3984375 0.015625 0  0.40625 0.015625 0  0.4140625 0.015625 0  0.421875 0.015625 0  0.4296875 0.015625 0  0.4375 0.015625 0  0.4453125 0.015625 0  0.453125 0.015625 0  0.4609375 0.015625 0  0.46875 0.015625 0  0.4765625 0.015625 0  0.484375 0.015625 0  0.4921875 0.015625 0  0.5 0.015625 0  0.5078125 0.015625 0  0.515625 0.015625 0  0.5234375 0.015625 0  0.53125 0.015625 0  0.5390625 0.015625 0  0.546875 0.015625 0  0.5546875 0.015625 0  0.5625 0.015625 0  0.5703125 0.015625 0  0.578125 0.015625 0  0.5859375 0.015625 0  0.59375 0.015625 0  0.6015625 0.015625 0  0.609375 0.015625 0  0.6171875 0.015625 0  0.625 0.015625 0  0.6328125 0.015625 0  0.640625 0.015625 0  0.6484375 0.015625 0  0.65625 0.015625 0  0.6640625 0.015625 0  0.671875 0.015625 0  0.6796875 0.015625 0  0.6875 0.015625 0  0.6953125 0.015625 0  0.703125 0.015625 0  0.7109375 0.015625 0  0.71875 0.015625 0  0.7265625 0.015625 0  0.734375 0.015625 0  0.7421875 0.015625 0  0.75 0.015625 0  0.7578125 0.015625 0  0.765625 0.015625 0  0.7734375 0.015625 0  0.78125 0.015625 0  0.7890625 0.015625 0  0.796875 0.015625 0  0.8046875 0.015625 0  0.8125 0.015625 0  0.8203125 0.015625 0  0.828125 0.015625 0  0.8359375 0.015625 0  0.84375 0.015625 0  0.8515625 0.015625 0  0.859375 0.015625 0  0.8671875 0.015625 0  0.875 0.015625 0  0.8828125 0.015625 0  0.890625 0.015625 0  0.8984375 0.015625 0  0.90625 0.015625 0  0.9140625 0.015625 0  0.921875 0.015625 0  0.9296875 0.015625 0  0.9375 0.015625 0  0.9453125 0.015625 0  0.953125 0.015625 0  0.9609375 0.015625 0  0.96875 0.015625 0  0.9765625 0.015625 0  0.984375 0.015625 0  0.9921875 0.015625 0  1 0.015625 0  0 0.0234375 0  0.0078125 0.0234375 0  0.015625 0.0234375 0  0.0234375 0.0234375 0  0.03125 0.0234375 0  0.0390625 0.0234375 0  0.046875 0.0234375 0  0.0546875 0.0234375 0  0.0625 0.0234375 0  0.0703125 0.0234375 0  0.078125 0.0234375 0  0.0859375 0.0234375 0  0.09375 0.0234375 0  0.1015625 0.0234375 0  0.109375 0.0234375 0  0.1171875 0.0234375 0  0.125 0.0234375 0  0.1328125 0.0234375 0  0.140625 0.0234375 0  0.1484375 0.0234375 0  0.15625 0.0234375 0  0.1640625 0.0234375 0  0.171875 0.0234375 0  0.1796875 0.0234375 0  0.1875 0.0234375 0  0.1953125 0.0234375 0  0.203125 0.0234375 0  0.2109375 0.0234375 0  0.21875 0.0234375 0  0.2265625 0.0234375 0  0.234375 0.0234375 0  0.2421875 0.0234375 0  0.25 0.0234375 0  0.2578125 0.0234375 0  0.265625 0.0234375 0  0.2734375 0.0234375 0  0.28125 0.0234375 0  0.2890625 0.0234375 0  0.296875 0.0234375 0  0.3046875 0.0234375 0  0.3125 0.0234375 0  0.3203125 0.0234375 0  0.328125 0.0234375 0  0.3359375 0.0234375 0  0.34375 0.0234375 0  0.3515625 0.0234375 0  0.359375 0.0234375 0  0.3671875 0.0234375 0  0.375 0.0234375 0  0.3828125 0.0234375 0  0.390625 0.0234375 0  0.3984375 0.0234375 0  0.40625 0.0234375 0  0.4140625 0.0234375 0  0.421875 0.0234375 0  0.4296875 0.0234375 0  0.4375 0.0234375 0  0.4453125 0.0234375 0  0.453125 0.0234375 0  0.4609375 0.0234375 0  0.46875 0.0234375 0  0.4765625 0.0234375 0  0.484375 0.0234375 0  0.4921875 0.0234375 0  0.5 0.0234375 0  0.5078125 0.0234375 0  0.515625 0.0234375 0  0.5234375 0.0234375 0  0.53125 0.0234375 0  0.5390625 0.0234375 0  0.546875 0.0234375 0  0.5546875 0.0234375 0  0.5625 0.0234375 0  0.5703125 0.0234375 0  0.578125 0.0234375 0  0.5859375 0.0234375 0  0.59375 0.0234375 0  0.6015625 0.0234375 0  0.609375 0.0234375 0  0.6171875 0.0234375 0  0.625 0.0234375 0  0.6328125 0.0234375 0  0.640625 0.0234375 0  0.6484375 0.0234375 0  0.65625 0.0234375 0  0.6640625 0.0234375 0  0.671875 0.0234375 0  0.6796875 0.0234375 0  0.6875 0.0234375 0  0.6953125 0.0234375 0  0.703125 0.0234375 0  0.7109375 0.0234375 0  0.71875 0.0234375 0  0.7265625 0.0234375 0  0.734375 0.0234375 0  0.7421875 0.0234375 0  0.75 0.0234375 0  0.7578125 0.0234375 0  0.765625 0.0234375 0  0.7734375 0.0234375 0  0.78125 0.0234375 0  0.7890625 0.0234375 0  0.796875 0.0234375 0  0.8046875 0.0234375 0  0.8125 0.0234375 0  0.8203125 0.0234375 0  0.828125 0.0234375 0  0.8359375 0.0234375 0  0.84375 0.0234375 0  0.8515625 0.0234375 0  0.859375 0.0234375 0  0.8671
[...]
<CellData  Scalars="f_16667"> 
<DataArray  type="Float64"  Name="f_16667"  format="ascii">3.3040073766639056e-14   3.3050900265243875e-14   2.1696508980018917e-15   4.0459827123480001e-15   4.4155826912334892e-16   5.0349621806761450e-16   1.4560390674503618e-16   1.9161513691533360e-16   6.3109461201755402e-17   9.4845590159800511e-17   3.1828519942906980e-17   5.0054227136507265e-17   1.7632303626061392e-17   2.7999147490024544e-17   1.0415166468133072e-17   1.6504343404076895e-17   6.4477330653736590e-18   1.0160746593234356e-17   4.1398281040561602e-18   6.4839664161828930e-18   2.7396903715091723e-18   4.2665226995760368e-18   1.8629865525581930e-18   2.8862996105579627e-18   1.3007644335164140e-18   2.0055739052260008e-18   9.3366520277979570e-19   1.4325674076817184e-18   6.9070333237399911e-19   1.0541199226850062e-18   5.2823969976179400e-19   8.0124993331230839e-19   4.1870516371560538e-19   6.3073170464034874e-19   3.4429066584060429e-19   5.1484407993598026e-19   2.9328503807672158e-19   4.3546464269813297e-19   2.5788095878047915e-19   3.8056103467783447e-19   2.3282341235287671e-19   3.4204866696337009e-19   2.1455644623245827e-19   3.1445040351231888e-19   2.0067264561487939e-19   2.9403947172375300e-19   1.8955096216975893e-19   2.7828051855587735e-19   1.8011428368504446e-19   2.6545860547869134e-19   1.7166461708094956e-19   2.5442900217661969e-19   1.6376947187728258e-19   2.4444601515721788e-19   1.5618256551974455e-19   2.3504437237232157e-19   1.4878787562049077e-19   2.2595607965308543e-19   1.4155978803100758e-19   2.1705154756020998e-19   1.3453447927666997e-19   2.0829753425294082e-19   1.2778922949288131e-19   1.9972687501957085e-19   1.2142739224106053e-19   1.9141656164597203e-19   1.1556743829537863e-19   1.8347179533844119e-19   1.1033495925035621e-19   1.7601435160741339e-19   1.0585683904596471e-19   1.6917408376279302e-19   1.0225702496401430e-19   1.6308272802525346e-19   9.9653486733501411e-20   1.5786940823957830e-19   9.8156063388836348e-20   1.5365740332318491e-19   9.7864977141005486e-20   1.5056185812178918e-19   9.8869850663904427e-20   1.4868820246588895e-19   1.0124910593936697e-19   1.4813110414217033e-19   1.0506965323345140e-19   1.4897382574410019e-19   1.1038680131881624e-19   1.5128788794146758e-19   1.1724433669102698e-19   1.5513296561883278e-19   1.2567473207820604e-19   1.6055696128816752e-19   1.3569945388577036e-19   1.6759621346796174e-19   1.4732934532581432e-19   1.7627580774295575e-19   1.6056506738494388e-19   1.8660996587564966e-19   1.7539758391291495e-19   1.9860249406266828e-19   1.9180868026256749e-19   2.1224727585514459e-19   2.0977150739394332e-19   2.2752879862225436e-19   2.2925114522755657e-19   2.4442270511122695e-19   2.5020518053949369e-19   2.6289636356903262e-19   2.7258429585749754e-19   2.8290945159348745e-19   2.9633286672697528e-19   3.0441455000243438e-19   3.2138956544953491e-19   3.2735774402711039e-19   3.4768797008993989e-19   3.5167922993100676e-19   3.7515717784496526e-19   3.7731392574522861e-19   4.0372242252111201e-19   4.0419208525878282e-19   4.3330569612721537e-19   4.3223991504166664e-19   4.6382637477796187e-19   4.6138019430470285e-19   4.9520184970637967e-19   4.9153289806263454e-19   5.2734816422794525e-19   5.2261582410867861e-19   5.6018065790529622e-19   5.5454522473841612e-19   5.9361461953107218e-19   5.8723644444577397e-19   6.2756595074180616e-19   6.2060456495946712e-19   6.6195184281538278e-19   6.5456505964374688e-19   6.9669146911155550e-19   6.8903445933958218e-19   7.3170669685225941e-19   7.2393103232432395e-19   7.6692282191575023e-19   7.5917548168076679e-19   8.0226933165454640e-19   7.9469166375312288e-19   8.3768070125286011e-19   8.3040733239507003e-19   8.7309723057403154e-19   8.6625491439187411e-19   9.0846592956693778e-19   9.0217232279244353e-19   9.4374146230977015e-19   9.3810381598364174e-19   9.7888716154584629e-19   9.7400091242772610e-19   1.0138761283168142e-18   1.0098233727580879e-18   1.0486924345420907e-18   1.0455402638241360e-18   1.0833324501933739e-18   1.0811311223286429e-18   1.1178063220916558e-18   1.1165872403496120e-18   1.1521396370803893e-18   1.1519130996757863e-18   1.1863753110928681e-18   1.1871279891013645e-18   1.2205757550857144e-18   1.2222678473776449e-18   1.2548253821962810e-18   1.2573873849228877e-18   1.2892335369902351e-18   1.2925625522697518e-18   1.3239379492168472e-18   1.3278934410733988e-18   1.3591088425550161e-18   1.3635077276004594e-18   1.3949538651478769e-18   1.3995647997116703e-18   1.4317240565670680e-18   1.4362607498745325e-18   1.4697211299811927e-18   1.4738344711728581e-18   1.5093064318290478e-18   1.5125751669862070e-18   1.5509120552535583e-18   1.5528316823906854e-18   1.5950547362982122e-18   1.5950241997464140e-18   1.6423533698936071e-18   1.6396590221731348e-18   1.6935512687896030e-18   1.6873474190249018e-18   1.7495446839282572e-18   1.7388298559315658e-18   1.8114196568193880e-18   1.7950074180657951e-18   1.8805000543890745e-18   1.8569829250661612e-18   1.9584107463618067e-18   1.9261152202806526e-18   2.0471614851081944e-18   2.0040915398645708e-18   2.1492593791212176e-18   2.0930249463230637e-18   2.2678612916959231e-18   2.1955868890149369e-18   2.4069826435054976e-18   2.3151895712476605e-18   2.5717869065405808e-18   2.4562398301819774e-18   2.7689921137516160e-18   2.6244970978075708e-18   3.0074495728793315e-18   2.8275850883314856e-18   3.2989800834261018e-18   3.0757342002731109e-18   3.6596019769427474e-18   3.3828762845509301e-18   4.1113668602623859e-18   3.7682879932937562e-18   4.6851578958415571e-18   4.2591064195853280e-18   5.4250484755323114e-18   4.8942645742464150e-18   6.3952566720922673e-18   5.7307988848404843e-18   7.6915443873647622e-18   6.8542366134257674e-18   9.4604784165512570e-18   8.3962349813437446e-18   1.1933119351032532e-17   1.0565598814385000e-17   1.5486323345750293e-17   1.3705054665939829e-17   2.0759500922959572e-17   1.8400111720861693e-17   2.8889114434012859e-17   2.5699464296146269e-17   4.2009598288538239e-17   3.7590836268575414e-17   6.4402038129109003e-17   5.8109735570764711e-17   1.0534295562336812e-16   9.6166194418142495e-17   1.8673583521417151e-16   1.7353308002795742e-16   3.6463559307296328e-16   3.4999372720285420e-16   7.8965432468938526e-16   8.0964996700733857e-16   1.9337401848462251e-15   2.1513389189285294e-15   9.9608583268838348e-15   5.7727611652644350e-15   6.3380152422791602e-13   2.0614473909523147e-14   4.1217516325193560e-15   2.2267569063790421e-15   6.0645192612258789e-16   6.1126777590822530e-16   3.1725644057729813e-16   3.9691851817626612e-16   1.5579682388726679e-16   1.7705887485439121e-16   7.1982593877582945e-17   6.9637579094291379e-17   3.5886862821826364e-17   3.3954521661802404e-17   1.9507488231746622e-17   1.9451638740430585e-17   1.1395653934987962e-17   1.2104655911573117e-17   7.0522013693272835e-18   7.8917979401576042e-18   4.5755502064810913e-18   5.3133738920299470e-18   3.0915221771565705e-18   3.6726513569130197e-18   2.1668245375685861e-18   2.6004418444719125e-18   1.5724845783880922e-18   1.8856549700677368e-18   1.1808084445327099e-18   1.4016055234371705e-18   9.1729577741884416e-19   1.0695832045692094e-18   7.3680637638512811e-19   8.3934645457270450e-19   6.1111201053889250e-19   6.7811008116388412e-19   5.2209143407597364e-19   5.6408332732156127e-19   4.5785918510710521e-19   4.8256010744762583e-19   4.1048499646210921e-19   4.2349162483441335e-19   3.7460818808150485e-19   3.7994501197136650e-19   3.4657249737704297e-19   3.4710472776404352e-19   3.2387257010327615e-19   3.2161374754590141e-19   3.0479206550165892e-19   3.0113169505598137e-19   2.8816239374328163e-19   2.8403398264266640e-19   2.7319904301836898e-19   2.6920412407858190e-19   2.5938879113560521e-19   2.5588855391606555e-19   2.4641088484004662e-19   2.4359397464571048e-19   2.3408126383067178e-19   2.3201401926667383e-19   2.2231265343561994e-19   2.2097636850704728e-19   2.1108573411366822e-19   2.1040430283343417e-19   2.0042814130342499e-19   2.0028854884028845e-19   1.9039906475462411e-19   1.9066653974046562e-19   1.8107789553360359e-19   1.8160706470249349e-19   1.7255582769274211e-19   1.7319886841726889e-19   1.6492963679115190e-19   1.6554216942416206e-19   1.5829707558222711e-19   1.5874235064094581e-19   1.5275348048233300e-19   1.5290527780663146e-19   1.4838929093303002e-19   1.4813384525329362e-19   1.4528826164694618e-19   1.4452545241544196e-19   1.4352620367805636e-19   1.4217018967229995e-19   1.4317013147054210e-19   1.4114956739610254e-19   1.4427772272107678e-19   1.4153566263612117e-19   1.4689702070720651e-19   1.4339058802169449e-19   1.5106632483966957e-19   1.4676621003548067e-19   1.5681422804301414e-19   1.5170406080490571e-19   1.6415976888613736e-19   1.5823540028310477e-19   1.7311267364333988e-19   1.6638139551042194e-19   1.8367366887381593e-19   1.7615339112903790e-19   1.9583484954457803e-19   1.8755325096154498e-19   2.0958009081342938e-19   2.0057375506490554e-19   2.2488549433893684e-19   2.1519903988298525e-19   2.4171986182585841e-19   2.3140507209729469e-19   2.6004519034025753e-19   2.4916014859804637e-19   2.7981718480410607e-19   2.6842541675337719e-19   3.0098578465011221e-19   2.8915541073355974e-19   3.2349570182965087e-19   3.1129860016009637e-19   3.4728696852152080e-19   3.3479794867216841e-19   3.7229549310921873e-19   3.5959148044008485e-19   3.9845362375570727e-19   3.8561285346864312e-19   4.2569071905845967e-19   4.1279193845548314e-19   4.5393372573343806e-19   4.4105540320467977e-19   4.8310776374365258e-19   4.7032730217941238e-19   5.1313671938078089e-19   5.0052967155256031e-19   5.4394384736137390e-19   5.3158313041286422e-19   5.7545238311246950e-19   5.6340748874244097e-19   6.0758616740727204e-19   5.9592236380415651e-19   6.4027028442081340e-19   6.2904780583605614e-19   6.7343171717439651e-19   6.6270493592238579e-19   7.0700002256330061e-19   6.9681659761489849e-19   7.4090802981554188e-19   7.3130802582548483e-19   7.7509256796299292e-19   7.6610753646052512e-19   8.0949522639063843e-19   8.0114724088539350e-19   8.4406315672378900e-19   8.3636379131336312e-19   8.7874992295217556e-19   8.7169916254581764e-19   9.1351641083504671e-19   9.0710147915927693e-19   9.4833180770757483e-19   9.4252589667014800e-19   9.8317466790745500e-19   9.7793554942909700e-19   1.0180340818407791e-18   1.0133025793979043e-18   1.0529109709005344e-18   1.0486092641994112e-18   1.0878195354743336e-18   1.0838492663791032e-18   1.1227888906090326e-18   1.1190290325755884e-18   1.1578649308314694e-18   1.1541693767326060e-18   1.1931124782852511e-18   1.1893072925394865e-18   1.2286177798593018e-18   1.2244980495326630e-18   1.2644914383658073e-18   1.2598176445196319e-18   1.3008718835632949e-18   1.2953656979023058e-18   1.3379295209504798e-18   1.3312689114899454e-18   1.3758717317576598e-18   1.3676852360659209e-18   1.4149489504735244e-18   1.4048089437665259e-18   1.4554621127461766e-18   1.4428768573262640e-18   1.4977718558684443e-18   1.4821760694783430e-18   1.5423099736378665e-18   1.5230535910373345e-18   1.5895937903938859e-18   1.5659285129600545e-18   1.6402443381252663e-18   1.6113074668670420e-18   1.6950095246533252e-18   1.6598044426036615e-18   1.7547938978301544e-18   1.7121664059153933e-18   1.8206971941986513e-18   1.7693066956592188e-18   1.8940646831007061e-18   1.8323489463921443e-18   1.9765534846069301e-18   1.9026853730050231e-18   2.0702207183428353e-18   1.9820548405012059e-18   2.1776417784607482e-18   2.0726484644012783e-18   2.3020706139126495e-18   2.1772539295020455e-18   2.4476592280356106e-18   2.2994548906470979e-18   2.6197616579640033e-18   2.4439097058163814e-18   2.8253600075788481e-18   2.6167459524409165e-18   3.0736692425835266e-18   2.8261263605947943e-18   3.3770076816386335e-18   3.0830724880033444e-18   3.7520687178541343e-18   3.4026824904725537e-18   4.2218089533962374e-18   3.8059625781468171e-18   4.8183011655014135e-18   4.3226332902365777e-18   5.5871283898035064e-18   4.9955182313928783e-18   6.5942944958956915e-18   5.8875634284506474e-18   7.9373437530746223e-18   7.0933449721807649e-18   9.7637062361290153e-18   8.7584556137365411e-18   1.2301803863987180e-17   1.1113159040746854e-17   1.5915387398575580e-17   1.4532765024218055e-17   2.1201559769640682e-17   1.9649870144128725e-17   2.9173824989834427e-17   2.7571007066004396e-17   4.1616985291330553e-17   4.0310616475871112e-17   6.1807422750986237e-17   6.1686994537396776e-17   9.6097261525636676e-17   9.9184239075496661e-17   1.5820709529756742e-16   1.6756855308930542e-16   2.8772143357118807e-16   2.9366550654910792e-16   6.8120103809488032e-16   5.0773856490182242e-16   2.7850760856323992e-15   7.5366021349899478e-16   1.5110681525700683e-14   1.0244769963193148e-15   1.0031650777594910e-14   5.7515004891594296e-15   5.3857925903092580e-16   4.7089836973105535e-16   4.2816452424934192e-16   3.5364057629801255e-16   1.2887481768445487e-16   1.3064654116029936e-16   7.3372670789285913e-17   1.0588059557818748e-16   4.9393253319214985e-17   6.7329176500530750e-17   3.1236432626924556e-17   3.7196295834346928e-17   1.9402021712258184e-17   2.0955872463650756e-17   1.2237531482950595e-17   1.2627111106984751e-17   7.9367774156853880e-18   8.1055265599397646e-18   5.3113447514191066e-18   5.4649816182923863e-18   3.6685355807494321e-18   3.8261655291813465e-18   2.6137278041129370e-18   2.7620153260827415e-18   1.9197735841600777e-18   2.0479451408201508e-18   1.4529781176427567e-18   1.5569788502779720e-18   1.1325840753164142e-18   1.2129928619676065e-18   9.0852629559098026e-19   9.6823414539143336e-19   7.4899989005587547e-19   7.9169012461492466e-19   6.3334861271983597e-19   6.6267618795285962e-19   5.4789340801053732e-19   5.6710842918037329e-19   4.8342367946077789e-19   4.9524248535170235e-19   4.3365182641272016e-19   4.4025340206434049e-19   3.9423932936285399e-19   3.9731799333396846e-19   3.6216985473342428e-19   3.6300766302670815e-19   3.3533770411567070e-19   3.3487846771678333e-19   3.1227267066972997e-19   3.1118947990323428e-19   2.9195297773705415e-19   2.9070631682454301e-19   2.7367612658444450e-19   2.7256221351907894e-19   2.5696845942300468e-19   2.5615859357603612e-19   2.4152101373717641e-19   2.4109313650428440e-19   2.2714349284473969e-19   2.2710723433947761e-19   2.1373089104272892e-19   2.1404728154126123e-19   2.0123907070215850e-19   2.0183594200919811e-19   1.8966674806397960e-19   1.9045068320515400e-19   1.7904211762746081e-19   1.7990765356915176e-19   1.6941286905571748e-19   1.7024952190559962e-19   1.6083870908311761e-19   1.6153627835575042e-19   1.5338574993611292e-19   1.5383826561646178e-19   1.4712229988670537e-19   1.4723090119891234e-19   1.4211571561575589e-19   1.4179069011152733e-19   1.3843006416536607e-19   1.3759222815862701e-19   1.3612440644586170e-19   1.3470596976923874e-19   1.3525156080649482e-19   1.3319658887500612e-19   1.3585723932536631e-19   1.3312180178587606e-19   1.3797947538029470e-19   1.3453155179512245e-19   1.4164827929769548e-19   1.3746747750539297e-19   1.4688547391859215e-19   1.4196260499925869e-19   1.5370467227361656e-19   1.4804121676361820e-19   1.6211136809385451e-19   1.5571886060599593e-19   1.7210311608112223e-19   1.6500246986671074e-19   1.8366978390301605e-19   1.7589057194908584e-19   1.9679386153317362e-19   1.8837356743533848e-19   2.1145081680310631e-19   2.0243406523996110e-19   2.2760948802484641e-19   2.1804726292565225e-19   2.4523250685409745e-19   2.3518136271239848e-19   2.6427674554470658e-19   2.5379801648961936e-19   2.8469378436331772e-19   2.7385279384733543e-19   3.0643039568699802e-19   2.9529566907919202e-19   3.2942904216170887e-19   3.1807152310924271e-19   3.5362838676755821e-19   3.4212065824912806e-19   3.7896381372213049e-19   3.6737932335991394e-19   4.0536795876252556e-19   3.9378024802837721e-19   4.3277124874877993e-19   4.2125318481893763e-19   4.6110245003446029e-19   4.4972545885053485e-19   4.9028922620875412e-19   4.7912252465487212e-19   5.2025870520758720e-19   5.0936853024513157e-19   5.5093805748970923e-19   5.4038688898798266e-19   5.8225508565996053e-19   5.7210086018947323e-19   6.1413882830780620e-19   6.0443413916638333e-19   6.4652017917314564e-19   6.3731145923706722e-19   6.7933252537980277e-19   6.7065920661145747e-19   7.1251240735260204e-19   7.0440605193889228e-19   7.4600020522594656e-19   7.3848360096638538e-19   7.7974085603818476e-19   7.7282706857071455e-19   8.1368460880895843e-19   8.0737598155855846e-19   8.4778782420344362e-19   8.4207491571465444e-19   8.8201382838495473e-19   8.7687427517825896e-19   9.1633383227665878e-19   9.1173112324185857e-19   9.5072792973994794e-19   9.4661007623451328e-19   9.8518619178677210e-19   9.8148427465334342e-19   1.0197098778765465e-18   1.0163364498283621e-18   1.0543127895872687e-18   1.0511601073719032e-18   1.0890227993094673e-18   1.0859608566872303e-18   1.1238835938519188e-18   1.1207579200967794e-18   1.1589566828531093e-18   1.1555858676213394e-18   1.1943237359532082e-18   1.1904966318288032e-18   1.2300893275878300e-18   1.2255618758892664e-18   1.2663841915266850e-18   1.2608758062509911e-18   1.3033691145113634e-18   1.2965585482201695e-18   1.3412396343910971e-18   1.3327602375903861e-18   1.3802317583060514e-18   1.3696660278088181e-18   1.4206289765779076e-18   1.4075022732445919e-18   1.4627709366882716e-18   1.4465442322703650e-18   1.5070642506210040e-18   1.4871257440793458e-18   1.5539960648295456e-18   1.5296514872516010e-18   1.6041512256861650e-18   1.5746126315635350e-18   1.6582341574616579e-18   1.6226069862131486e-18   1.7170969588903187e-18   1.6743651409633473e-18   1.7817757613639407e-18   1.7307846599361139e-18   1.8535381529367138e-18   1.7929751776923313e-18   1.9339455340119162e-18   1.8623183785422021e-18   2.0249358000251272e-18   1.9405484729502981e-18   2.1289339366394092e-18   2.0298611656277246e-18   2.2490013145412234e-18   2.1330626214781391e-18   2.3890391747682528e-18   2.2537751701439315e-18   2.5540688168615107e-18   2.3967244042212791e-18   2.7506215948476025e-18   2.5681444203802204e-18   2.9872880365808241e-18   2.7763567281322939e-18   3.2755005703627356e-18   3.0326078664032702e-18   3.6306640214709605e-18   3.3522979139495915e-18   4.0738116644859024e-18   3.7568085043402553e-18   4.6340684956833637e-18   4.2762648101708208e-18   5.3523764590315990e-18   4.9537764228589997e-18   6.2872313423284018e-18   5.8520591432887108e-18   7.5236975281309354e-18   7.0639531000650693e-18   9.1879016236165857e-18   8.7294144426243134e-18   1.1470974625586423e-17   1.1063392640079948e-17   1.4669974906230151e-17   1.4402106414669577e-17   1.9261191575830519e-17   1.9280112752650353e-17   2.6041016238629626e-17   2.6556676672635679e-17   3.6428157350842963e-17   3.7610717307567930e-17   5.3225838718801003e-17   5.4587167604303147e-17   8.2957734319563241e-17   8.0483419687554694e-17   1.4431868822659832e-16   1.1816693834276162e-16   3.0058944678934590e-16   1.6594706617653799e-16   7.6397302294336371e-16   2.1106191165163120e-16   1.9596284035202115e-15   2.7974730966716603e-16   2.8373341765260999e-15   7.7024953502083956e-16   1.9562036811372478e-15   2.1824904879668940e-15   2.0616018159801294e-16   1.6125216218404981e-16   2.0419276962447299e-16   1.8307714989718318e-16   1.1775617773175137e-16   8.6186155239823049e-17   5.2949368611089285e-17   5.3304932432471045e-17   3.1809884573651670e-17   4.3003112948706908e-17   2.2461850117590052e-17   3.1321562111640059e-17   1.6054726524007335e-17   2.0890368277607223e-17   1.1348259006759045e-17   1.3668641069423080e-17   8.0112674804854821e-18   9.1030221896474880e-18   5.7061289167006939e-18   6.2484186138662215e-18   4.1271093551821455e-18   4.4268810962160881e-18   3.0423514699445161e-18   3.2300099355658161e-18   2.2904190596801911e-18   2.4205079200238762e-18   1.7628898406210833e-18   1.8588421900932579e-18   1.38777118