<?xml version="1.0"?>
<VTKFile type="UnstructuredGrid"  version="0.1"  >
<UnstructuredGrid>
<Piece  NumberOfPoints="16641" NumberOfCells="32768">
<Points>
<DataArray  type="Float64"  NumberOfComponents="3"  format="ascii">0 0 0  0.0078125 0 0  0.015625 0 0  0.0234375 0 0  0.03125 0 0  0.0390625 0 0  0.046875 0 0  0.0546875 0 0  0.0625 0 0  0.0703125 0 0  0.078125 0 0  0.0859375 0 0  0.09375 0 0  0.1015625 0 0  0.109375 0 0  0.1171875 0 0  0.125 0 0  0.1328125 0 0  0.140625 0 0  0.1484375 0 0  0.15625 0 0  0.1640625 0 0  0.171875 0 0  0.1796875 0 0  0.1875 0 0  0.1953125 0 0  0.203125 0 0  0.2109375 0 0  0.21875 0 0  0.2265625 0 0  0.234375 0 0  0.2421875 0 0  0.25 0 0  0.2578125 0 0  0.265625 0 0  0.2734375 0 0  0.28125 0 0  0.2890625 0 0  0.296875 0 0  0.3046875 0 0  0.3125 0 0  0.3203125 0 0  0.328125 0 0  0.3359375 0 0  0.34375 0 0  0.3515625 0 0  0.359375 0 0  0.3671875 0 0  0.375 0 0  0.3828125 0 0  0.390625 0 0  0.3984375 0 0  0.40625 0 0  0.4140625 0 0  0.421875 0 0  0.4296875 0 0  0.4375 0 0  0.4453125 0 0  0.453125 0 0  0.4609375 0 0  0.46875 0 0  0.4765625 0 0  0.484375 0 0  0.4921875 0 0  0.5 0 0  0.5078125 0 0  0.515625 0 0  0.5234375 0 0  0.53125 0 0  0.5390625 0 0  0.546875 0 0  0.5546875 0 0  0.5625 0 0  0.5703125 0 0  0.578125 0 0  0.5859375 0 0  0.59375 0 0  0.6015625 0 0  0.609375 0 0  0.6171875 0 0  0.625 0 0  0.6328125 0 0  0.640625 0 0  0.6484375 0 0  0.65625 0 0  0.6640625 0 0  0.671875 0 0  0.6796875 0 0  0.6875 0 0  0.6953125 0 0  0.703125 0 0  0.7109375 0 0  0.71875 0 0  0.7265625 0 0  0.734375 0 0  0.7421875 0 0  0.75 0 0  0.7578125 0 0  0.765625 0 0  0.7734375 0 0  0.78125 0 0  0.7890625 0 0  0.796875 0 0  0.8046875 0 0  0.8125 0 0  0.8203125 0 0  0.828125 0 0  0.8359375 0 0  0.84375 0 0  0.8515625 0 0  0.859375 0 0  0.8671875 0 0  0.875 0 0  0.8828125 0 0  0.890625 0 0  0.8984375 0 0  0.90625 0 0  0.9140625 0 0  0.921875 0 0  0.9296875 0 0  0.9375 0 0  0.9453125 0 0  0.953125 0 0  0.9609375 0 0  0.96875 0 0  0.9765625 0 0  0.984375 0 0  0.9921875 0 0  1 0 0  0 0.0078125 0  0.0078125 0.0078125 0  0.015625 0.0078125 0  0.0234375 0.0078125 0  0.03125 0.0078125 0  0.0390625 0.0078125 0  0.046875 0.0078125 0  0.0546875 0.0078125 0  0.0625 0.0078125 0  0.0703125 0.0078125 0  0.078125 0.0078125 0  0.0859375 0.0078125 0  0.09375 0.0078125 0  0.1015625 0.0078125 0  0.109375 0.0078125 0  0.1171875 0.0078125 0  0.125 0.0078125 0  0.1328125 0.0078125 0  0.140625 0.0078125 0  0.1484375 0.0078125 0  0.15625 0.0078125 0  0.1640625 0.0078125 0  0.171875 0.0078125 0  0.1796875 0.0078125 0  0.1875 0.0078125 0  0.1953125 0.0078125 0  0.203125 0.0078125 0  0.2109375 0.0078125 0  0.21875 0.0078125 0  0.2265625 0.0078125 0  0.234375 0.0078125 0  0.2421875 0.0078125 0  0.25 0.0078125 0  0.2578125 0.0078125 0  0.265625 0.0078125 0  0.2734375 0.0078125 0  0.28125 0.0078125 0  0.2890625 0.0078125 0  0.296875 0.0078125 0  0.3046875 0.0078125 0  0.3125 0.0078125 0  0.3203125 0.0078125 0  0.328125 0.0078125 0  0.3359375 0.0078125 0  0.34375 0.0078125 0  0.3515625 0.0078125 0  0.359375 0.0078125 0  0.3671875 0.0078125 0  0.375 0.0078125 0  0.3828125 0.0078125 0  0.390625 0.0078125 0  0.3984375 0.0078125 0  0.40625 0.0078125 0  0.4140625 0.0078125 0  0.421875 0.0078125 0  0.4296875 0.0078125 0  0.4375 0.0078125 0  0.4453125 0.0078125 0  0.453125 0.0078125 0  0.4609375 0.0078125 0  0.46875 0.0078125 0  0.4765625 0.0078125 0  0.484375 0.0078125 0  0.4921875 0.0078125 0  0.5 0.0078125 0  0.5078125 0.0078125 0  0.515625 0.0078125 0  0.5234375 0.0078125 0  0.53125 0.0078125 0  0.5390625 0.0078125 0  0.546875 0.0078125 0  0.5546875 0.0078125 0  0.5625 0.0078125 0  0.5703125 0.0078125 0  0.578125 0.0078125 0  0.5859375 0.0078125 0  0.59375 0.0078125 0  0.6015625 0.0078125 0  0.609375 0.0078125 0  0.6171875 0.0078125 0  0.625 0.0078125 0  0.6328125 0.0078125 0  0.640625 0.0078125 0  0.6484375 0.0078125 0  0.65625 0.0078125 0  0.6640625 0.0078125 0  0.671875 0.0078125 0  0.6796875 0.0078125 0  0.6875 0.0078125 0  0.6953125 0.0078125 0  0.703125 0.0078125 0  0.7109375 0.0078125 0  0.71875 0.0078125 0  0.7265625 0.0078125 0  0.734375 0.0078125 0  0.7421875 0.0078125 0  0.75 0.0078125 0  0.7578125 0.0078125 0  0.765625 0.0078125 0  0.7734375 0.0078125 0  0.78125 0.0078125 0  0.7890625 0.0078125 0  0.796875 0.0078125 0  0.8046875 0.0078125 0  0.8125 0.0078125 0  0.8203125 0.0078125 0  0.828125 0.0078125 0  0.8359375 0.0078125 0  0.84375 0.0078125 0  0.8515625 0.0078125 0  0.859375 0.0078125 0  0.8671875 0.0078125 0  0.875 0.0078125 0  0.8828125 0.0078125 0  0.890625 0.0078125 0  0.8984375 0.0078125 0  0.90625 0.0078125 0  0.9140625 0.0078125 0  0.921875 0.0078125 0  0.9296875 0.0078125 0  0.9375 0.0078125 0  0.9453125 0.0078125 0  0.953125 0.0078125 0  0.9609375 0.0078125 0  0.96875 0.0078125 0  0.9765625 0.0078125 0  0.984375 0.0078125 0  0.9921875 0.0078125 0  1 0.0078125 0  0 0.015625 0  0.0078125 0.015625 0  0.015625 0.015625 0  0.0234375 0.015625 0  0.03125 0.015625 0  0.0390625 0.015625 0  0.046875 0.015625 0  0.0546875 0.015625 0  0.0625 0.015625 0  0.0703125 0.015625 0  0.078125 0.015625 0  0.0859375 0.015625 0  0.09375 0.015625 0  0.1015625 0.015625 0  0.109375 0.015625 0  0.1171875 0.015625 0  0.125 0.015625 0  0.1328125 0.015625 0  0.140625 0.015625 0  0.1484375 0.015625 0  0.15625 0.015625 0  0.1640625 0.015625 0  0.171875 0.015625 0  0.1796875 0.015625 0  0.1875 0.015625 0  0.1953125 0.015625 0  0.203125 0.015625 0  0.2109375 0.015625 0  0.21875 0.015625 0  0.2265625 0.015625 0  0.234375 0.015625 0  0.2421875 0.015625 0  0.25 0.015625 0  0.2578125 0.015625 0  0.265625 0.015625 0  0.2734375 0.015625 0  0.28125 0.015625 0  0.2890625 0.015625 0  0.296875 0.015625 0  0.3046875 0.015625 0  0.3125 0.015625 0  0.3203125 0.015625 0  0.328125 0.015625 0  0.3359375 0.015625 0  0.34375 0.015625 0  0.3515625 0.015625 0  0.359375 0.015625 0  0.3671875 0.015625 0  0.375 0.015625 0  0.3828125 0.015625 0  0.390625 0.015625 0  0.3984375 0.015625 0  0.40625 0.015625 0  0.4140625 0.015625 0  0.421875 0.015625 0  0.4296875 0.015625 0  0.4375 0.015625 0  0.4453125 0.015625 0  0.453125 0.015625 0  0.4609375 0.015625 0  0.46875 0.015625 0  0.4765625 0.015625 0  0.484375 0.015625 0  0.4921875 0.015625 0  0.5 0.015625 0  0.5078125 0.015625 0  0.515625 0.015625 0  0.5234375 0.015625 0  0.53125 0.015625 0  0.5390625 0.015625 0  0.546875 0.015625 0  0.5546875 0.015625 0  0.5625 0.015625 0  0.5703125 0.015625 0  0.578125 0.015625 0  0.5859375 0.015625 0  0.59375 0.015625 0  0.6015625 0.015625 0  0.609375 0.015625 0  0.6171875 0.015625 0  0.625 0.015625 0  0.6328125 0.015625 0  0.640625 0.015625 0  0.6484375 0.015625 0  0.65625 0.015625 0  0.6640625 0.015625 0  0.671875 0.015625 0  0.6796875 0.015625 0  0.6875 0.015625 0  0.6953125 0.015625 0  0.703125 0.015625 0  0.7109375 0.015625 0  0.71875 0.015625 0  0.7265625 0.015625 0  0.734375 0.015625 0  0.7421875 0.015625 0  0.75 0.015625 0  0.7578125 0.015625 0  0.765625 0.015625 0  0.7734375 0.015625 0  0.78125 0.015625 0  0.7890625 0.015625 0  0.796875 0.015625 0  0.8046875 0.015625 0  0.8125 0.015625 0  0.8203125 0.015625 0  0.828125 0.015625 0  0.8359375 0.015625 0  0.84375 0.015625 0  0.8515625 0.015625 0  0.859375 0.015625 0  0.8671875 0.015625 0  0.875 0.015625 0  0.8828125 0.015625 0  0.890625 0.015625 0  0.8984375 0.015625 0  0.90625 0.015625 0  0.9140625 0.015625 0  0.921875 0.015625 0  0.9296875 0.015625 0  0.9375 0.015625 0  0.9453125 0.015625 0  0.953125 0.015625 0  0.9609375 0.015625 0  0.96875 0.015625 0  0.9765625 0.015625 0  0.984375 0.015625 0  0.9921875 0.015625 0  1 0.015625 0  0 0.0234375 0  0.0078125 0.0234375 0  0.015625 0.0234375 0  0.0234375 0.0234375 0  0.03125 0.0234375 0  0.0390625 0.0234375 0  0.046875 0.0234375 0  0.0546875 0.0234375 0  0.0625 0.0234375 0  0.0703125 0.0234375 0  0.078125 0.0234375 0  0.0859375 0.0234375 0  0.09375 0.0234375 0  0.1015625 0.0234375 0  0.109375 0.0234375 0  0.1171875 0.0234375 0  0.125 0.0234375 0  0.1328125 0.0234375 0  0.140625 0.0234375 0  0.1484375 0.0234375 0  0.15625 0.0234375 0  0.1640625 0.0234375 0  0.171875 0.0234375 0  0.1796875 0.0234375 0  0.1875 0.0234375 0  0.1953125 0.0234375 0  0.203125 0.0234375 0  0.2109375 0.0234375 0  0.21875 0.0234375 0  0.2265625 0.0234375 0  0.234375 0.0234375 0  0.2421875 0.0234375 0  0.25 0.0234375 0  0.2578125 0.0234375 0  0.265625 0.0234375 0  0.2734375 0.0234375 0  0.28125 0.0234375 0  0.2890625 0.0234375 0  0.296875 0.0234375 0  0.3046875 0.0234375 0  0.3125 0.0234375 0  0.3203125 0.0234375 0  0.328125 0.0234375 0  0.3359375 0.0234375 0  0.34375 0.0234375 0  0.3515625 0.0234375 0  0.359375 0.0234375 0  0.3671875 0.0234375 0  0.375 0.0234375 0  0.3828125 0.0234375 0  0.390625 0.0234375 0  0.3984375 0.0234375 0  0.40625 0.0234375 0  0.4140625 0.0234375 0  0.421875 0.0234375 0  0.4296875 0.0234375 0  0.4375 0.0234375 0  0.4453125 0.0234375 0  0.453125 0.0234375 0  0.4609375 0.0234375 0  0.46875 0.0234375 0  0.4765625 0.0234375 0  0.484375 0.0234375 0  0.4921875 0.0234375 0  0.5 0.0234375 0  0.5078125 0.0234375 0  0.515625 0.0234375 0  0.5234375 0.0234375 0  0.53125 0.0234375 0  0.5390625 0.0234375 0  0.546875 0.0234375 0  0.5546875 0.0234375 0  0.5625 0.0234375 0  0.5703125 0.0234375 0  0.578125 0.0234375 0  0.5859375 0.0234375 0  0.59375 0.0234375 0  0.6015625 0.0234375 0  0.609375 0.0234375 0  0.6171875 0.0234375 0  0.625 0.0234375 0  0.6328125 0.0234375 0  0.640625 0.0234375 0  0.6484375 0.0234375 0  0.65625 0.0234375 0  0.6640625 0.0234375 0  0.671875 0.0234375 0  0.6796875 0.0234375 0  0.6875 0.0234375 0  0.6953125 0.0234375 0  0.703125 0.0234375 0  0.7109375 0.0234375 0  0.71875 0.0234375 0  0.7265625 0.0234375 0  0.734375 0.0234375 0  0.7421875 0.0234375 0  0.75 0.0234375 0  0.7578125 0.0234375 0  0.765625 0.0234375 0  0.7734375 0.0234375 0  0.78125 0.0234375 0  0.7890625 0.0234375 0  0.796875 0.0234375 0  0.8046875 0.0234375 0  0.8125 0.0234375 0  0.8203125 0.0234375 0  0.828125 0.0234375 0  0.8359375 0.0234375 0  0.84375 0.0234375 0  0.8515625 0.0234375 0  0.859375 0.0234375 0  0.8671
[...]
<CellData  Scalars="f_16804"> 
<DataArray  type="Float64"  Name="f_16804"  format="ascii">8.6166533522170636e-14   8.6027106954907269e-14   8.5590196051666471e-14   8.7459627105804875e-14   8.4920906576564255e-14   8.6823375863939165e-14   8.4155183109827153e-14   8.6081381751349290e-14   8.3294020406573685e-14   8.5239971657734600e-14   8.2339227648594267e-14   8.4302124499915166e-14   8.1293001001422155e-14   8.3270269344757841e-14   8.0157812978537877e-14   8.2146903597621399e-14   7.8936373330957675e-14   8.0934720227289518e-14   7.7631610317366700e-14   7.9636625882203645e-14   7.6246658583743172e-14   7.8255737362398109e-14   7.4784849130653379e-14   7.6795373761863326e-14   7.3249700048231152e-14   7.5259047760394690e-14   7.1644907332001924e-14   7.3650456572966677e-14   6.9974335549659257e-14   7.1973472565423161e-14   6.8242008274407096e-14   7.0232133660011516e-14   6.6452098177377455e-14   6.8430633372522395e-14   6.4608916933178181e-14   6.6573310600062797e-14   6.2716904724740018e-14   6.4664639014234336e-14   6.0780619444137124e-14   6.2709216217403737e-14   5.8804725762510579e-14   6.0711752625969712e-14   5.6793983775079120e-14   5.8677060034759756e-14   5.4753237600274730e-14   5.6610040051282507e-14   5.2687403628239404e-14   5.4515672213080255e-14   5.0601458703541266e-14   5.2399001991210050e-14   4.8500428132808716e-14   5.0265128624262790e-14   4.6389373560081572e-14   4.8119192825679727e-14   4.4273380756361364e-14   4.5966364364996957e-14   4.2157547436473382e-14   4.3811829624966953e-14   4.0046970837440197e-14   4.1660779128666825e-14   3.7946735626110481e-14   3.9518394988769010e-14   3.5861901461728444e-14   3.7389838443558737e-14   3.3797490957826015e-14   3.5280237434766946e-14   3.1758477506229320e-14   3.3194674190695827e-14   2.9749773292855936e-14   3.1138173105824038e-14   2.7776217492119540e-14   2.9115688474309145e-14   2.5842564595282463e-14   2.7132092672983277e-14   2.3953472971740305e-14   2.5192164427030107e-14   2.2113493631680931e-14   2.3300577201854034e-14   2.0327059253181064e-14   2.1461888028803557e-14   1.8598473518919741e-14   1.9680526498658287e-14   1.6931900797345292e-14   1.7960784101322229e-14   1.5331355993564137e-14   1.6306803845192708e-14   1.3800694958182068e-14   1.4722570355636104e-14   1.2343605228382378e-14   1.3211900212665424e-14   1.0963597044949724e-14   1.1778432756323236e-14   9.6639949971343809e-15   1.0425621352987431e-14   8.4479299203180261e-15   9.1567250605058666e-15   7.3183314601800256e-15   7.9748007905024097e-15   6.2779209053853198e-15   6.8826959013599240e-15   5.3292047107834436e-15   5.8830413771168861e-15   4.4744684225722315e-15   4.9782454988411255e-15   3.7157711835314816e-15   4.1704880095640061e-15   3.0549407665375504e-15   3.4617148773423275e-15   2.4935691797976707e-15   2.8536336084443351e-15   2.0330088249502829e-15   2.3477091409511045e-15   1.6743692359143554e-15   1.9451602987537179e-15   1.4185144200104724e-15   1.6469568720425323e-15   1.2660607609498305e-15   1.4538172696126617e-15   1.2173755419433276e-15   1.3662067940450426e-15   1.2725760627070750e-15   1.3843365184867695e-15   1.4315293469952254e-15   1.5081627798769441e-15   1.6938524758854838e-15   1.7373872853247911e-15   2.0589135017225633e-15   2.0714578226526579e-15   2.5258329700204383e-15   2.5095696059343915e-15   3.0934860498048765e-15   3.0506671801414937e-15   3.7605052260340698e-15   3.6934470461500573e-15   4.5252836065224820e-15   4.4363606717742729e-15   5.3859787816115302e-15   5.2776183486757773e-15   6.3405172929694732e-15   6.2151934228677162e-15   7.3865995755773813e-15   7.2468272034879177e-15   8.5217055623637872e-15   8.3700344270846241e-15   9.7431006679485199e-15   9.5821091904995280e-15   1.1047842514280818e-14   1.0880131536261945e-14   1.2432787848222088e-14   1.2260974424466711e-14   1.3894600247369499e-14   1.3721311303364546e-14   1.5429758106717892e-14   1.5257624113711265e-14   1.7034563108345893e-14   1.6866211775405828e-14   1.8705149173085611e-14   1.8543199062392824e-14   2.0437491710969991e-14   2.0284546012166244e-14   2.2227417437439731e-14   2.2086057585254237e-14   2.4070614248558840e-14   2.3943393787631129e-14   2.5962641758548882e-14   2.5852080192688373e-14   2.7898941947091012e-14   2.7807518594321327e-14   2.9874850110966489e-14   2.9804998232536542e-14   3.1885606158204886e-14   3.1839707020905378e-14   3.3926366046241907e-14   3.3906743189870607e-14   3.5992213414557638e-14   3.6001127083601097e-14   3.8078171492073151e-14   3.8117813219596045e-14   4.0179215061529751e-14   4.0251702309546383e-14   4.2290282566008427e-14   4.2397653695989031e-14   4.4406288299726284e-14   4.4550497589147434e-14   4.6522134626948228e-14   4.6705047649996691e-14   4.8632724356471493e-14   4.8856113407127187e-14   5.0732972910318793e-14   5.0998512834449007e-14   5.2817820662939927e-14   5.3127084694640695e-14   5.4882245089836883e-14   5.5236701120122287e-14   5.6921272801126919e-14   5.7322279904403357e-14   5.8929991696206380e-14   5.9378796799067690e-14   6.0903562659850820e-14   6.1401297466212247e-14   6.2837231220036493e-14   6.3384909620832621e-14   6.4726339067793193e-14   6.5324854589439421e-14   6.6566335291580255e-14   6.7216459011194394e-14   6.8352787263060932e-14   6.9055165860645535e-14   7.0081391396721139e-14   7.0836545656629782e-14   7.1747983479378858e-14   7.2556307010227687e-14   7.3348548773869867e-14   7.4210306986298087e-14   7.4879231616532825e-14   7.5794561094516180e-14   7.6336344811383510e-14   7.7305252898017467e-14   7.7716378472486893e-14   7.8738743200420469e-14   7.9016008514527810e-14   8.0091578826558469e-14   8.0232104782138323e-14   8.1360500928972174e-14   8.1361738510532220e-14   8.2542452841681020e-14   8.2402189584151322e-14   8.3634587421489322e-14   8.3350953014307417e-14   8.4634273911630756e-14   8.4205745272535581e-14   8.5539104176502785e-14   8.4964509791122425e-14   8.6346898457212670e-14   8.5625422188279402e-14   8.7055710383716219e-14   8.6186894915343064e-14   8.7663831372402642e-14   8.6647581483930915e-14   8.8169794022307286e-14   8.7006380183663285e-14   8.8572374367840523e-14   8.7262437529974510e-14   8.8870592152749395e-14   8.7415151275889464e-14   8.9063707433222501e-14   8.7464172912165526e-14   8.9151208964374556e-14   8.7409406600995141e-14   8.9132779598898951e-14   8.7251141566846439e-14   8.9008199442612051e-14   8.6987735510754419e-14   8.8776541346577367e-14   8.4755288899238058e-14   8.8443471352453990e-14   8.7219735076778163e-14   8.5019505891655736e-14   8.6619647266847431e-14   8.6427873876746197e-14   8.5914695849008082e-14   8.5755097294987289e-14   8.5110724453456230e-14   8.4982727878960536e-14   8.4210334086018849e-14   8.4113400599868690e-14   8.3215816418865798e-14   8.3149542092075578e-14   8.2129586367447621e-14   8.2093684210996273e-14   8.0954258998058956e-14   8.0948469221896339e-14   7.9692660356668666e-14   7.9716694734438984e-14   7.8347824549002511e-14   7.8401341558984039e-14   7.6922987170014684e-14   7.7005581951360899e-14   7.5421577551618923e-14   7.5532778111631454e-14   7.3847210272751403e-14   7.3986476567793516e-14   7.2203676301479659e-14   7.2370400657041632e-14   7.0494933704553270e-14   7.0688441893344569e-14   6.8725098023609686e-14   6.8944650754038404e-14   6.6898432213431937e-14   6.7143226939011129e-14   6.5019336364339186e-14   6.5288509235997751e-14   6.3092337035726881e-14   6.3384965047708275e-14   6.1122076293298902e-14   6.1437179554533192e-14   5.9113300474176628e-14   5.9449844698516053e-14   5.7070848847369622e-14   5.7427747820498516e-14   5.4999641788746458e-14   5.5375760071054279e-14   5.2904668981995234e-14   5.3298824707374225e-14   5.0790977418157342e-14   5.1201945139886081e-14   4.8663659212750051e-14   4.9090172909470899e-14   4.6527839231318809e-14   4.6968595348617925e-14   4.4388662936532974e-14   4.4842323576063984e-14   4.2251283807652442e-14   4.2716479955051245e-14   4.0120851017307496e-14   4.0596185864524812e-14   3.8002497024831808e-14   3.8486549289204894e-14   3.5901325137705477e-14   3.6392652570421331e-14   3.3822397326099250e-14   3.4319540140040771e-14   3.1770721939814548e-14   3.2272206328441264e-14   2.9751241663661760e-14   3.0255583359054580e-14   2.7768821636720338e-14   2.8274529541862501e-14   2.5828237717798501e-14   2.6333817415648322e-14   2.3934164960811179e-14   2.4438122354834796e-14   2.2091166377143492e-14   2.2592011294413302e-14   2.0303681928417192e-14   2.0799931724520400e-14   1.8576017850940846e-14   1.9066200933783436e-14   1.6912336258262707e-14   1.7394995660354923e-14   1.5316645105830808e-14   1.5790341992471357e-14   1.3792788578887512e-14   1.4256105738861195e-14   1.2344437787630537e-14   1.2795983015350516e-14   1.0975081973700557e-14   1.1413491401583753e-14   9.6880200195017499e-15   1.0111961459896120e-14   8.4863525959710419e-15   8.8945287175331239e-15   7.3729746247562794e-15   7.7641260924138956e-15   6.3505683615677976e-15   6.7234768323070741e-15   5.4215968699406605e-15   5.7750879734650819e-15   4.5882981368202575e-15   4.9212442846981072e-15   3.8526796568054622e-15   4.1640027633582685e-15   3.2165136239887687e-15   3.5051876842137121e-15   2.6813326158615647e-15   2.9463862024937440e-15   2.2484259473968652e-15   2.4889445390902731e-15   1.9188365366092069e-15   2.1339647191843123e-15   1.6933584056985100e-15   1.8823019384463470e-15   1.5725347624935196e-15   1.7345624855031229e-15   1.5566566926884533e-15   1.6911022928882850e-15   1.6457624646736436e-15   1.7520260722309260e-15   1.8396374206408577e-15   1.9171870668807312e-15   2.1378145138833996e-15   2.1861874037378117e-15   2.5395754244285517e-15   2.5583790547233076e-15   3.0439523006665189e-15   3.0328653819984682e-15   3.6497300372587488e-15   3.6085033395744572e-15   4.3554493082811568e-15   4.2839061627279297e-15   5.1594099802988694e-15   5.0574467719896405e-15   6.0596752435719653e-15   5.9272616496867446e-15   7.0540763314646712e-15   6.8912553729236399e-15   8.1402176350178440e-15   7.9471055672813304e-15   9.3154825697091998e-15   9.0922686582620282e-15   1.0577039848331205e-14   1.0323985851468625e-14   1.1921850266800626e-14   1.1639289847258361e-14   1.3346674111148235e-14   1.3035011987421648e-14   1.4848078847240285e-14   1.4507789866160473e-14   1.6422447489853528e-14   1.6054075462089099e-14   1.8065987303569746e-14   1.7670143663191758e-14   1.9774738838102186e-14   1.9352101209330714e-14   2.1544585601184383e-14   2.1095896178530012e-14   2.3371263924948586e-14   2.2897327622397538e-14   2.5250373145888473e-14   2.4752055730580825e-14   2.7177386423134773e-14   2.6655612382661034e-14   2.9147661411645650e-14   2.8603411728715768e-14   3.1156451588466145e-14   3.0590761379387501e-14   3.3198917589342999e-14   3.2612873666122586e-14   3.5270139039236437e-14   3.4664877164619897e-14   3.7365126166684242e-14   3.6741828439422714e-14   3.9478832025051068e-14   3.8838723970748543e-14   4.1606164472236291e-14   4.0950512177389354e-14   4.3741998734764382e-14   4.3072105646492640e-14   4.5881189344507488e-14   4.5198393231823562e-14   4.8018582902580219e-14   4.7324252609331220e-14   5.0149030232525648e-14   4.9444562423919696e-14   5.2267399002275986e-14   5.1554214677671987e-14   5.4368585889653248e-14   5.3648127084221195e-14   5.6447529030746181e-14   5.5721255257953921e-14   5.8499220065795914e-14   5.7768604926356321e-14   6.0518716440393737e-14   5.9785243863775057e-14   6.2501153041376890e-14   6.1766313876489594e-14   6.4441754137116080e-14   6.3707042429476617e-14   6.6335844705912170e-14   6.5602754207503477e-14   6.8178861879314148e-14   6.7448882327922213e-14   6.9966365796690541e-14   6.9240979404064348e-14   7.1694050382128146e-14   7.0974728169664903e-14   7.3357753736670029e-14   7.2645951936193050e-14   7.4953468080918858e-14   7.4250624663241559e-14   7.6477349535471547e-14   7.5784880663609545e-14   7.7925727327318933e-14   7.7245023794394940e-14   7.9295112660361506e-14   7.8627536500072639e-14   8.0582207121514805e-14   7.9929088202636903e-14   8.1783910661376208e-14   8.1146543277212725e-14   8.2897329109135700e-14   8.2276968598018243e-14   8.3919781071521151e-14   8.3317640539434195e-14   8.4848804385670272e-14   8.4266051365279784e-14   8.5682162091716613e-14   8.5119915235104308e-14   8.6417847578189746e-14   8.5877173302119546e-14   8.7054089177228767e-14   8.6535998310740519e-14   8.7589353712320665e-14   8.7094798239289361e-14   8.8022348730716625e-14   8.7552218860677383e-14   8.8352022089501153e-14   8.7907144769450810e-14   8.8577555958290599e-14   8.8158698044956332e-14   8.8698346294520182e-14   8.8306232855447090e-14   8.8713942499947987e-14   8.8349323138987938e-14   8.8623884330932678e-14   8.8287737871109644e-14   8.8427557292945807e-14   8.8121415093580308e-14   8.8124751288330823e-14   8.7849999696094504e-14   8.5915343917842125e-14   8.7481642534007340e-14   8.6158413367016701e-14   8.3923064958260847e-14   8.5522107021889796e-14   8.5294746271151801e-14   8.4784578377273449e-14   8.4589169830352717e-14   8.3951299141333037e-14   8.3786352997743361e-14   8.3023709930105280e-14   8.2889407183453289e-14   8.2004152000789695e-14   8.1900587958119341e-14   8.0895152185113636e-14   8.0822234778426413e-14   7.9699412581456899e-14   7.9656964704384759e-14   7.8419825644152345e-14   7.8407611180159459e-14   7.7059477935722005e-14   7.7077201278105582e-14   7.5621647373783209e-14   7.5668949271669674e-14   7.4109797240014557e-14   7.4186251944239200e-14   7.2527568707020074e-14   7.2632682759838068e-14   7.0878772442755141e-14   7.1011984542013404e-14   6.9167379584093701e-14   6.9328061170265853e-14   6.7397512190284410e-14   6.7584968620992456e-14   6.5573433348430824e-14   6.5786905357440145e-14   6.3699536856482003e-14   6.3938202315488699e-14   6.1780336705072283e-14   6.2043312564485428e-14   5.9820456092000655e-14   6.0106800467105549e-14   5.7824616303423952e-14   5.8133330823689260e-14   5.5797625308398221e-14   5.6127657528141375e-14   5.3744366194236011e-14   5.4094612171620542e-14   5.1669785377198048e-14   5.2039092317970959e-14   4.9578880631372400e-14   4.9966049754191124e-14   4.7476689128265179e-14   4.7880478511977268e-14   4.5368275220495567e-14   4.5787402873592291e-14   4.3258718280646936e-14   4.3691865158358620e-14   4.1153100429144230e-14   4.1598913720523729e-14   3.9056494289347093e-14   3.9513590635754279e-14   3.6973950820497599e-14   3.7440919672110799e-14   3.4910487075340836e-14   3.5385894065660606e-14   3.2871074123886249e-14   3.3353464593891167e-14   3.0860625166778980e-14   3.1348527590465985e-14   2.8883983536013916e-14   2.9375913141141271e-14   2.6945911194010510e-14   2.7440373499196630e-14   2.5051077146119421e-14   2.5546571548501060e-14   2.3204046234584690e-14   2.3699069681021505e-14   2.1409268147157896e-14   2.1902318732165361e-14   1.9671066667828192e-14   2.0160647235736636e-14   1.7993629333546361e-14   1.8478251071929091e-14   1.6380997235045132e-14   1.6859183306807670e-14   1.4837055359360521e-14   1.5307344436503536e-14   1.3365523220980616e-14   1.3826473015885324e-14   1.1969945894136008e-14   1.2420136611693840e-14   1.0653685454930360e-14   1.1091723228440792e-14   9.4199129045680165e-15   9.8444331592988170e-15   8.2716005281868470e-15   8.6812712456965544e-15   7.2115147245612287e-15   7.6050396758680541e-15   6.2422093491852063e-15   6.6183311907785341e-15   5.3660195477223405e-15   5.7235228923082668e-15   4.5850561593411050e-15   4.9227704579149728e-15   3.9012006032269092e-15   4.2180029899170282e-15   3.3161003618493159e-15   3.6109183489359176e-15   2.8311650002924315e-15   3.1029790740484972e-15   2.4475627884640434e-15   2.6954088482067941e-15   2.1662178676460216e-15   2.3891895592690905e-15   1.9878080353919560e-15   2.1850589312811908e-15   1.9127631088160509e-15   2.0835087475620199e-15   1.9412638918486194e-15   2.0847836658903586e-15   2.0732417368096199e-15   2.1888806304627900e-15   2.3083787118285678e-15   2.3955488744671922e-15   2.6461083609706466e-15   2.7042905328300834e-15   3.0856170846219392e-15   3.1143618365770695e-15   3.6258460718150390e-15   3.6247749011237314e-15   4.2654938938374856e-15   4.2343001034911940e-15   5.0030195897618104e-15   4.9414690828214797e-15   5.8366464099738530e-15   5.7445781972323007e-15   6.7643660841528121e-15   6.6416927205583719e-15   7.7839436976147064e-15   7.6306514283068166e-15   8.8929229953613444e-15   8.7090718541764109e-15   1.0088632364686479e-14   9.8743560072146975e-15   1.1368191266598860e-14   1.1123696633807296e-14   1.2728517153830051e-14   1.2454083965881876e-14   1.4166332891231376e-14   1.3862313037444563e-14   1.5678174677930524e-14   1.5344991284726894e-14   1.7260400383251036e-14   1.6898546837666085e-14   1.8909198310087620e-14   1.8519237059316788e-14   2.0620596367277922e-14   2.0203157587562798e-14   2.2390471682754538e-14   2.1946251747612268e-14   2.4214560489464076e-14   2.3744320258260890e-14   2.6088468441080087e-14   2.5593031461687795e-14   2.8007681135673928e-14   2.7487931672159668e-14   2.9967575046538892e-14   2.9424455918713458e-14   3.1963428664358874e-14   3.1397938982509334e-14   3.3990433811133654e-14   3.3403626593706813e-14   3.6043707318461013e-14   3.5436686860622580e-14   3.8118302663030468e-14   3.7492222025035741e-14   4.0209221999994656e-14   3.9565280140813123e-14   4.2311428172064132e-14   4.1650867071561523e-14   4.4419856807905884e-14   4.3743958457754595e-14   4.6529428572006337e-14   4.5839511908379709e-14   4.8635061320591501e-14   4.7932479045300816e-14   5.0731682496828418e-14   5.0017817817501036e-14   5.2814241156632591e-14   5.2090504427117497e-14   5.4877720318258153e-14   5.4145545687743549e-14   5.6917148913895164e-14   5.6177990822859752e-14   5.8927613862033032e-14   5.8182943549826173e-14   6.0904271840575085e-14   6.0155573775479137e-14   6.2842360973569662e-14   6.2091129331295537e-14   6.4737212344296418e-14   6.3984947321874897e-14   6.6584261188266112e-14   6.5832465428229217e-14   6.8379057897917146e-14   6.7629232850253025e-14   7.0117278811299801e-14   6.9370921066841841e-14   7.1794736543224345e-14   7.1053334211137375e-14   7.3407390121800669e-14   7.2672419237383564e-14   7.4951354713229523e-14   7.4224275608603265e-14   7.6422910980069616e-14   7.5705164748694531e-14   7.7818514032080719e-14   7.7111518953508322e-14   7.9134801994358906e-14   7.8439950067973103e-14   8.0368604008382942e-14   7.9687257470983655e-14   8.1516947890269520e-14   8.0850435867001170e-14   8.2577067236823608e-14   8.1926682364183445e-14   8.3546407977948382e-14   8.2913403170196257e-14   8.4422634303025481e-14   8.3808219619447936e-14   8.5203634104475799e-14   8.4608973693579048e-14   8.5887523414992735e-14   8.5313732812602578e-14   8.6472650105152532e-14   8.5920793970952801e-14   8.6957596086609361e-14   8.6428686910945259e-14   8.7341177556476322e-14   8.6836176293366635e-14   8.7622441454847333e-14   8.7142262615964132e-14   8.7800655249897646e-14   8.7346181416314680e-14   8.7875283825081281e-14   8.7447400872970691e-14   8.7845949480830326e-14   8.7445618943789870e-14   8.7712417051208457e-14   8.7340765310196634e-14   8.7475137927108181e-14   8.7133035954195466e-14   8.7137213316756909e-14   8.6822466479582863e-14   8.4897919919971013e-14   8.6417711841107997e-14   8.4992050001232147e-14   8.2735370235232525e-14   8.4324254347330387e-14   8.4067153699517009e-14   8.3555846221416661e-14   8.3331258978133209e-14   8.2694634918587564e-14   8.2500205156669123e-14   8.1741743769213557e-14   8.1577432464353063e-14   8.0699391419094487e-14   8.0565430227075246e-14   7.9570103853065899e-14   7.9466560346435829e-14   7.8356624094347419e-14   7.8283433291483716e-14   7.7061890160095814e-14   7.7018894289450377e-14   7.5689029130353138e-14   7.5675994762273529e-14   7.4241352132758907e-14   7.4257975590678695e-14   7.2722348309419985e-14   7.2768256898973203e-14   7.1135677423921913e-14   7.1210429780137200e-14   6.9485161712478908e-14   6.9588248188380890e-14   6.77747769