<?xml version="1.0"?>
<VTKFile type="UnstructuredGrid"  version="0.1"  >
<UnstructuredGrid>
<Piece  NumberOfPoints="16641" NumberOfCells="32768">
<Points>
<DataArray  type="Float64"  NumberOfComponents="3"  format="ascii">0 0 0  0.0078125 0 0  0.015625 0 0  0.0234375 0 0  0.03125 0 0  0.0390625 0 0  0.046875 0 0  0.0546875 0 0  0.0625 0 0  0.0703125 0 0  0.078125 0 0  0.0859375 0 0  0.09375 0 0  0.1015625 0 0  0.109375 0 0  0.1171875 0 0  0.125 0 0  0.1328125 0 0  0.140625 0 0  0.1484375 0 0  0.15625 0 0  0.1640625 0 0  0.171875 0 0  0.1796875 0 0  0.1875 0 0  0.1953125 0 0  0.203125 0 0  0.2109375 0 0  0.21875 0 0  0.2265625 0 0  0.234375 0 0  0.2421875 0 0  0.25 0 0  0.2578125 0 0  0.265625 0 0  0.2734375 0 0  0.28125 0 0  0.2890625 0 0  0.296875 0 0  0.3046875 0 0  0.3125 0 0  0.3203125 0 0  0.328125 0 0  0.3359375 0 0  0.34375 0 0  0.3515625 0 0  0.359375 0 0  0.3671875 0 0  0.375 0 0  0.3828125 0 0  0.390625 0 0  0.3984375 0 0  0.40625 0 0  0.4140625 0 0  0.421875 0 0  0.4296875 0 0  0.4375 0 0  0.4453125 0 0  0.453125 0 0  0.4609375 0 0  0.46875 0 0  0.4765625 0 0  0.484375 0 0  0.4921875 0 0  0.5 0 0  0.5078125 0 0  0.515625 0 0  0.5234375 0 0  0.53125 0 0  0.5390625 0 0  0.546875 0 0  0.5546875 0 0  0.5625 0 0  0.5703125 0 0  0.578125 0 0  0.5859375 0 0  0.59375 0 0  0.6015625 0 0  0.609375 0 0  0.6171875 0 0  0.625 0 0  0.6328125 0 0  0.640625 0 0  0.6484375 0 0  0.65625 0 0  0.6640625 0 0  0.671875 0 0  0.6796875 0 0  0.6875 0 0  0.6953125 0 0  0.703125 0 0  0.7109375 0 0  0.71875 0 0  0.7265625 0 0  0.734375 0 0  0.7421875 0 0  0.75 0 0  0.7578125 0 0  0.765625 0 0  0.7734375 0 0  0.78125 0 0  0.7890625 0 0  0.796875 0 0  0.8046875 0 0  0.8125 0 0  0.8203125 0 0  0.828125 0 0  0.8359375 0 0  0.84375 0 0  0.8515625 0 0  0.859375 0 0  0.8671875 0 0  0.875 0 0  0.8828125 0 0  0.890625 0 0  0.8984375 0 0  0.90625 0 0  0.9140625 0 0  0.921875 0 0  0.9296875 0 0  0.9375 0 0  0.9453125 0 0  0.953125 0 0  0.9609375 0 0  0.96875 0 0  0.9765625 0 0  0.984375 0 0  0.9921875 0 0  1 0 0  0 0.0078125 0  0.0078125 0.0078125 0  0.015625 0.0078125 0  0.0234375 0.0078125 0  0.03125 0.0078125 0  0.0390625 0.0078125 0  0.046875 0.0078125 0  0.0546875 0.0078125 0  0.0625 0.0078125 0  0.0703125 0.0078125 0  0.078125 0.0078125 0  0.0859375 0.0078125 0  0.09375 0.0078125 0  0.1015625 0.0078125 0  0.109375 0.0078125 0  0.1171875 0.0078125 0  0.125 0.0078125 0  0.1328125 0.0078125 0  0.140625 0.0078125 0  0.1484375 0.0078125 0  0.15625 0.0078125 0  0.1640625 0.0078125 0  0.171875 0.0078125 0  0.1796875 0.0078125 0  0.1875 0.0078125 0  0.1953125 0.0078125 0  0.203125 0.0078125 0  0.2109375 0.0078125 0  0.21875 0.0078125 0  0.2265625 0.0078125 0  0.234375 0.0078125 0  0.2421875 0.0078125 0  0.25 0.0078125 0  0.2578125 0.0078125 0  0.265625 0.0078125 0  0.2734375 0.0078125 0  0.28125 0.0078125 0  0.2890625 0.0078125 0  0.296875 0.0078125 0  0.3046875 0.0078125 0  0.3125 0.0078125 0  0.3203125 0.0078125 0  0.328125 0.0078125 0  0.3359375 0.0078125 0  0.34375 0.0078125 0  0.3515625 0.0078125 0  0.359375 0.0078125 0  0.3671875 0.0078125 0  0.375 0.0078125 0  0.3828125 0.0078125 0  0.390625 0.0078125 0  0.3984375 0.0078125 0  0.40625 0.0078125 0  0.4140625 0.0078125 0  0.421875 0.0078125 0  0.4296875 0.0078125 0  0.4375 0.0078125 0  0.4453125 0.0078125 0  0.453125 0.0078125 0  0.4609375 0.0078125 0  0.46875 0.0078125 0  0.4765625 0.0078125 0  0.484375 0.0078125 0  0.4921875 0.0078125 0  0.5 0.0078125 0  0.5078125 0.0078125 0  0.515625 0.0078125 0  0.5234375 0.0078125 0  0.53125 0.0078125 0  0.5390625 0.0078125 0  0.546875 0.0078125 0  0.5546875 0.0078125 0  0.5625 0.0078125 0  0.5703125 0.0078125 0  0.578125 0.0078125 0  0.5859375 0.0078125 0  0.59375 0.0078125 0  0.6015625 0.0078125 0  0.609375 0.0078125 0  0.6171875 0.0078125 0  0.625 0.0078125 0  0.6328125 0.0078125 0  0.640625 0.0078125 0  0.6484375 0.0078125 0  0.65625 0.0078125 0  0.6640625 0.0078125 0  0.671875 0.0078125 0  0.6796875 0.0078125 0  0.6875 0.0078125 0  0.6953125 0.0078125 0  0.703125 0.0078125 0  0.7109375 0.0078125 0  0.71875 0.0078125 0  0.7265625 0.0078125 0  0.734375 0.0078125 0  0.7421875 0.0078125 0  0.75 0.0078125 0  0.7578125 0.0078125 0  0.765625 0.0078125 0  0.7734375 0.0078125 0  0.78125 0.0078125 0  0.7890625 0.0078125 0  0.796875 0.0078125 0  0.8046875 0.0078125 0  0.8125 0.0078125 0  0.8203125 0.0078125 0  0.828125 0.0078125 0  0.8359375 0.0078125 0  0.84375 0.0078125 0  0.8515625 0.0078125 0  0.859375 0.0078125 0  0.8671875 0.0078125 0  0.875 0.0078125 0  0.8828125 0.0078125 0  0.890625 0.0078125 0  0.8984375 0.0078125 0  0.90625 0.0078125 0  0.9140625 0.0078125 0  0.921875 0.0078125 0  0.9296875 0.0078125 0  0.9375 0.0078125 0  0.9453125 0.0078125 0  0.953125 0.0078125 0  0.9609375 0.0078125 0  0.96875 0.0078125 0  0.9765625 0.0078125 0  0.984375 0.0078125 0  0.9921875 0.0078125 0  1 0.0078125 0  0 0.015625 0  0.0078125 0.015625 0  0.015625 0.015625 0  0.0234375 0.015625 0  0.03125 0.015625 0  0.0390625 0.015625 0  0.046875 0.015625 0  0.0546875 0.015625 0  0.0625 0.015625 0  0.0703125 0.015625 0  0.078125 0.015625 0  0.0859375 0.015625 0  0.09375 0.015625 0  0.1015625 0.015625 0  0.109375 0.015625 0  0.1171875 0.015625 0  0.125 0.015625 0  0.1328125 0.015625 0  0.140625 0.015625 0  0.1484375 0.015625 0  0.15625 0.015625 0  0.1640625 0.015625 0  0.171875 0.015625 0  0.1796875 0.015625 0  0.1875 0.015625 0  0.1953125 0.015625 0  0.203125 0.015625 0  0.2109375 0.015625 0  0.21875 0.015625 0  0.2265625 0.015625 0  0.234375 0.015625 0  0.2421875 0.015625 0  0.25 0.015625 0  0.2578125 0.015625 0  0.265625 0.015625 0  0.2734375 0.015625 0  0.28125 0.015625 0  0.2890625 0.015625 0  0.296875 0.015625 0  0.3046875 0.015625 0  0.3125 0.015625 0  0.3203125 0.015625 0  0.328125 0.015625 0  0.3359375 0.015625 0  0.34375 0.015625 0  0.3515625 0.015625 0  0.359375 0.015625 0  0.3671875 0.015625 0  0.375 0.015625 0  0.3828125 0.015625 0  0.390625 0.015625 0  0.3984375 0.015625 0  0.40625 0.015625 0  0.4140625 0.015625 0  0.421875 0.015625 0  0.4296875 0.015625 0  0.4375 0.015625 0  0.4453125 0.015625 0  0.453125 0.015625 0  0.4609375 0.015625 0  0.46875 0.015625 0  0.4765625 0.015625 0  0.484375 0.015625 0  0.4921875 0.015625 0  0.5 0.015625 0  0.5078125 0.015625 0  0.515625 0.015625 0  0.5234375 0.015625 0  0.53125 0.015625 0  0.5390625 0.015625 0  0.546875 0.015625 0  0.5546875 0.015625 0  0.5625 0.015625 0  0.5703125 0.015625 0  0.578125 0.015625 0  0.5859375 0.015625 0  0.59375 0.015625 0  0.6015625 0.015625 0  0.609375 0.015625 0  0.6171875 0.015625 0  0.625 0.015625 0  0.6328125 0.015625 0  0.640625 0.015625 0  0.6484375 0.015625 0  0.65625 0.015625 0  0.6640625 0.015625 0  0.671875 0.015625 0  0.6796875 0.015625 0  0.6875 0.015625 0  0.6953125 0.015625 0  0.703125 0.015625 0  0.7109375 0.015625 0  0.71875 0.015625 0  0.7265625 0.015625 0  0.734375 0.015625 0  0.7421875 0.015625 0  0.75 0.015625 0  0.7578125 0.015625 0  0.765625 0.015625 0  0.7734375 0.015625 0  0.78125 0.015625 0  0.7890625 0.015625 0  0.796875 0.015625 0  0.8046875 0.015625 0  0.8125 0.015625 0  0.8203125 0.015625 0  0.828125 0.015625 0  0.8359375 0.015625 0  0.84375 0.015625 0  0.8515625 0.015625 0  0.859375 0.015625 0  0.8671875 0.015625 0  0.875 0.015625 0  0.8828125 0.015625 0  0.890625 0.015625 0  0.8984375 0.015625 0  0.90625 0.015625 0  0.9140625 0.015625 0  0.921875 0.015625 0  0.9296875 0.015625 0  0.9375 0.015625 0  0.9453125 0.015625 0  0.953125 0.015625 0  0.9609375 0.015625 0  0.96875 0.015625 0  0.9765625 0.015625 0  0.984375 0.015625 0  0.9921875 0.015625 0  1 0.015625 0  0 0.0234375 0  0.0078125 0.0234375 0  0.015625 0.0234375 0  0.0234375 0.0234375 0  0.03125 0.0234375 0  0.0390625 0.0234375 0  0.046875 0.0234375 0  0.0546875 0.0234375 0  0.0625 0.0234375 0  0.0703125 0.0234375 0  0.078125 0.0234375 0  0.0859375 0.0234375 0  0.09375 0.0234375 0  0.1015625 0.0234375 0  0.109375 0.0234375 0  0.1171875 0.0234375 0  0.125 0.0234375 0  0.1328125 0.0234375 0  0.140625 0.0234375 0  0.1484375 0.0234375 0  0.15625 0.0234375 0  0.1640625 0.0234375 0  0.171875 0.0234375 0  0.1796875 0.0234375 0  0.1875 0.0234375 0  0.1953125 0.0234375 0  0.203125 0.0234375 0  0.2109375 0.0234375 0  0.21875 0.0234375 0  0.2265625 0.0234375 0  0.234375 0.0234375 0  0.2421875 0.0234375 0  0.25 0.0234375 0  0.2578125 0.0234375 0  0.265625 0.0234375 0  0.2734375 0.0234375 0  0.28125 0.0234375 0  0.2890625 0.0234375 0  0.296875 0.0234375 0  0.3046875 0.0234375 0  0.3125 0.0234375 0  0.3203125 0.0234375 0  0.328125 0.0234375 0  0.3359375 0.0234375 0  0.34375 0.0234375 0  0.3515625 0.0234375 0  0.359375 0.0234375 0  0.3671875 0.0234375 0  0.375 0.0234375 0  0.3828125 0.0234375 0  0.390625 0.0234375 0  0.3984375 0.0234375 0  0.40625 0.0234375 0  0.4140625 0.0234375 0  0.421875 0.0234375 0  0.4296875 0.0234375 0  0.4375 0.0234375 0  0.4453125 0.0234375 0  0.453125 0.0234375 0  0.4609375 0.0234375 0  0.46875 0.0234375 0  0.4765625 0.0234375 0  0.484375 0.0234375 0  0.4921875 0.0234375 0  0.5 0.0234375 0  0.5078125 0.0234375 0  0.515625 0.0234375 0  0.5234375 0.0234375 0  0.53125 0.0234375 0  0.5390625 0.0234375 0  0.546875 0.0234375 0  0.5546875 0.0234375 0  0.5625 0.0234375 0  0.5703125 0.0234375 0  0.578125 0.0234375 0  0.5859375 0.0234375 0  0.59375 0.0234375 0  0.6015625 0.0234375 0  0.609375 0.0234375 0  0.6171875 0.0234375 0  0.625 0.0234375 0  0.6328125 0.0234375 0  0.640625 0.0234375 0  0.6484375 0.0234375 0  0.65625 0.0234375 0  0.6640625 0.0234375 0  0.671875 0.0234375 0  0.6796875 0.0234375 0  0.6875 0.0234375 0  0.6953125 0.0234375 0  0.703125 0.0234375 0  0.7109375 0.0234375 0  0.71875 0.0234375 0  0.7265625 0.0234375 0  0.734375 0.0234375 0  0.7421875 0.0234375 0  0.75 0.0234375 0  0.7578125 0.0234375 0  0.765625 0.0234375 0  0.7734375 0.0234375 0  0.78125 0.0234375 0  0.7890625 0.0234375 0  0.796875 0.0234375 0  0.8046875 0.0234375 0  0.8125 0.0234375 0  0.8203125 0.0234375 0  0.828125 0.0234375 0  0.8359375 0.0234375 0  0.84375 0.0234375 0  0.8515625 0.0234375 0  0.859375 0.0234375 0  0.8671
[...]
<CellData  Scalars="f_7933"> 
<DataArray  type="Float64"  Name="f_7933"  format="ascii">3.4444684058565268e-13   3.4388645986920112e-13   3.4224852436464056e-13   3.4979075659959503e-13   3.3959449875763080e-13   3.4722298194861099e-13   3.3654159661433512e-13   3.4425292791438686e-13   3.3310254033145460e-13   3.4089023218185390e-13   3.2928712116685161e-13   3.3714202025960327e-13   3.2510507533007414e-13   3.3301727132280274e-13   3.2056670801290478e-13   3.2852607138277232e-13   3.1568306403151569e-13   3.2367934137151421e-13   3.1046596839230970e-13   3.1848881065218914e-13   3.0492802440882538e-13   3.1296701043451726e-13   2.9908259518754045e-13   3.0712725691251801e-13   2.9294377720135815e-13   3.0098362556886865e-13   2.8652636941836952e-13   2.9455092065611531e-13   2.7984583921530146e-13   2.8784464106824528e-13   2.7291828631490997e-13   2.8088094405065405e-13   2.6576040403247863e-13   2.7367660639016047e-13   2.5838944015490095e-13   2.6624898468808006e-13   2.5082315506489387e-13   2.5861597324266328e-13   2.4307977924991563e-13   2.5079596112778460e-13   2.3517796951445625e-13   2.4280778811459695e-13   2.2713676409369409e-13   2.3467069895426831e-13   2.1897553680846784e-13   2.2640429731668679e-13   2.1071395046313095e-13   2.1802849837996790e-13   2.0237190940775115e-13   2.0956348083789672e-13   1.9396951190588369e-13   2.0102963842618586e-13   1.8552700114384481e-13   1.9244753058426689e-13   1.7706471704407446e-13   1.8383783309697658e-13   1.6860304709892586e-13   1.7522128818335289e-13   1.6016237712766018e-13   1.6661865450546151e-13   1.5176304234445723e-13   1.5805065719792234e-13   1.4342527825255717e-13   1.4953793789737951e-13   1.3516917192253956e-13   1.4110100523494867e-13   1.2701461378265516e-13   1.3276018491343416e-13   1.1898124947472949e-13   1.2453557144762564e-13   1.1108843259697174e-13   1.1644697896972409e-13   1.0335517805281291e-13   1.0851389417638938e-13   9.5800116509711263e-14   1.0075542900625851e-13   8.8441449139706721e-14   9.3190274746278452e-14   8.1296903997044694e-14   8.5836656851386323e-14   7.4383693234401730e-14   7.8712291199336086e-14   6.7718471748271404e-14   7.1834341421683340e-14   6.1317296856186629e-14   6.5219377434154992e-14   5.5195589927706893e-14   5.8883335541984509e-14   4.9368098831133238e-14   5.2841480103540926e-14   4.3848862778274727e-14   4.7108366787461067e-14   3.8651178265454276e-14   4.1697807425687373e-14   3.3787567240622534e-14   3.6622836774707636e-14   2.9269746693433695e-14   3.1895681087870153e-14   2.5108600608525759e-14   2.7527728754376689e-14   2.1314153775143573e-14   2.3529502762204371e-14   1.7895547477563930e-14   1.9910635353022127e-14   1.4861017570254042e-14   1.6679844936914072e-14   1.2217874692995478e-14   1.3844914944037629e-14   9.9724865220313353e-15   1.1412675154407681e-14   8.1302625558752428e-15   9.3889852163165414e-15   6.6956409900729198e-15   7.7787205637324301e-15   5.6720781198274738e-15   6.5857606397511174e-15   5.0620399303910057e-15   5.8129795538967277e-15   4.8669962037105006e-15   5.4622391788693899e-15   5.0874169667802483e-15   5.5343846378466398e-15   5.7227713484366113e-15   6.0292423211506070e-15   6.7715288825102256e-15   6.9456202156464118e-15   8.2311631674360921e-15   8.2813108893050730e-15   1.0098158025167143e-14   1.0033096700983303e-14   1.2368015789463782e-14   1.2196757629493155e-14   1.5035268439211648e-14   1.4767081371269069e-14   1.8093490391972130e-14   1.7737876024563086e-14   2.1535314411185199e-14   2.1101984906424678e-14   2.5352448988052365e-14   2.4851303690943178e-14   2.9535698562455431e-14   2.8976800182941888e-14   3.4074985482635861e-14   3.3468535864287822e-14   3.8959374417490622e-14   3.8315689972147859e-14   4.4177098660898237e-14   4.3506585542983158e-14   4.9715588548874531e-14   4.9028717415796224e-14   5.5561501551146746e-14   5.4868782499185434e-14   6.1700754614625293e-14   6.1012711835973175e-14   6.8118558004708034e-14   6.7445704395179412e-14   7.4799450938009188e-14   7.4152262726585475e-14   8.1727338746440265e-14   8.1116230360989285e-14   8.8885531928752377e-14   8.8320830852253412e-14   9.6256786035911835e-14   9.5748707818032838e-14   1.0382334328807983e-13   1.0338196711442346e-13   1.1156697558580324e-13   1.1120221986243486e-13   1.1946902803162620e-13   1.1919062657843489e-13   1.2751046425575135e-13   1.2732794284688760e-13   1.3567191206258325e-13   1.3559456532625137e-13   1.4393371011279252e-13   1.4397057928171540e-13   1.5227595542614517e-13   1.5243580641913774e-13   1.6067855091444521e-13   1.6096985356666170e-13   1.6912125456108372e-13   1.6955216171321788e-13   1.7758372736129451e-13   1.7816205552752152e-13   1.8604558298803316e-13   1.8677879335393513e-13   1.9448643614410053e-13   1.9538161684607466e-13   2.0288595275804916e-13   2.0394980142309100e-13   2.1122389787537936e-13   2.1246270569924295e-13   2.1948018516611719e-13   2.2089982157284961e-13   2.2763492467269424e-13   2.2924082353592506e-13   2.3566847150514664e-13   2.3746561743832005e-13   2.4356147250268631e-13   2.4555438929479170e-13   2.5129491323878345e-13   2.5348765263410210e-13   2.5885016353136447e-13   2.6124629554628299e-13   2.6620902267428298e-13   2.6881162677303289e-13   2.7335376307668417e-13   2.7616542077729761e-13   2.8026717294428403e-13   2.8328996134029013e-13   2.8693259790578695e-13   2.9016808460087581e-13   2.9333398106216957e-13   2.9678322014703638e-13   2.9945590165790701e-13   3.0311943076717255e-13   3.0528361227649413e-13   3.0916145091303296e-13   3.1080307440105152e-13   3.1489472352006936e-13   3.1600099229769903e-13   3.2030543463782535e-13   3.2086484489114370e-13   3.2538054649436922e-13   3.2538291637831571e-13   3.3010782873796022e-13   3.2954432393955829e-13   3.3447588723817361e-13   3.3333904457485959e-13   3.3847419072847433e-13   3.3675793931869460e-13   3.4209309485249310e-13   3.3979277543830126e-13   3.4532386322255029e-13   3.4243624695811232e-13   3.4815868464892063e-13   3.4468199351362142e-13   3.5059068554001817e-13   3.4652461757799363e-13   3.5261393386934011e-13   3.4795970057320395e-13   3.5422342941444835e-13   3.4898381299012140e-13   3.5541506463178181e-13   3.4959447945802270e-13   3.5618551928871395e-13   3.4978985202553649e-13   3.5653198785674328e-13   3.4956662554453093e-13   3.5645144367028288e-13   3.4890835994028161e-13   3.5593858210580315e-13   3.4769234237601337e-13   3.5497813852752231e-13   3.3698477132057485e-13   3.5357970676802335e-13   3.4882584612482773e-13   3.3997652247139747e-13   3.4642444953974401e-13   3.4566415023886687e-13   3.4359221365406798e-13   3.4298024368305003e-13   3.4037635191526135e-13   3.3988316044814943e-13   3.3677649214237347e-13   3.3640023748119173e-13   3.3280029044936263e-13   3.3254284622246102e-13   3.2845717917741480e-13   3.2831931735205196e-13   3.2375760212747476e-13   3.2373917194180429e-13   3.1871288301483165e-13   3.1881314978735716e-13   3.1333517981307207e-13   3.1355298674765260e-13   3.0763745150795014e-13   3.0797129086443500e-13   3.0163342716636311e-13   3.0208147450915752e-13   2.9533757292812713e-13   2.9589770622681544e-13   2.8876505749059059e-13   2.8943487006269549e-13   2.8193171568689998e-13   2.8270852665750558e-13   2.7485401065197227e-13   2.7573487408155438e-13   2.6754899395886137e-13   2.6853070773622068e-13   2.6003426493183915e-13   2.6111337998745861e-13   2.5232792802669396e-13   2.5350075715970012e-13   2.4444854926025880e-13   2.4571117701992774e-13   2.3641511152992315e-13   2.3776340406938458e-13   2.2824696893256890e-13   2.2967658428581685e-13   2.1996380003201475e-13   2.2147019896961824e-13   2.1158556050321854e-13   2.1316401765416625e-13   2.0313243485205701e-13   2.0477805049408287e-13   1.9462478857932999e-13   1.9633250014259092e-13   1.8608311763349117e-13   1.8784771244179410e-13   1.7752800044918271e-13   1.7934412850747908e-13   1.6898004777121175e-13   1.7084223439520560e-13   1.6045985295425755e-13   1.6236251224041964e-13   1.5198794257019812e-13   1.5392539076270825e-13   1.4358472662568865e-13   1.4555119605019721e-13   1.3527044986231080e-13   1.3726010271230253e-13   1.2706514243235771e-13   1.2907208506702482e-13   1.1898857231770204e-13   1.2100686924817853e-13   1.1106019696150027e-13   1.1308388530180177e-13   1.0329911696308845e-13   1.0532222087309366e-13   9.5724029925180281e-14   9.7740574855335152e-14   8.8353185177903430e-14   9.0357212334887777e-14   8.1204340082339356e-14   8.3189920993037241e-14   7.4294717097554826e-14   7.6255967632971876e-14   6.7640962523421712e-14   6.9572057283802116e-14   6.1259106034768943e-14   6.3154292109430442e-14   5.5164522345471045e-14   5.7018133563142312e-14   4.9371894156928682e-14   5.1178364366620866e-14   4.3895176518478551e-14   4.5649053294579746e-14   3.8747563688409133e-14   4.0443521354320819e-14   3.3941456833127470e-14   3.5574309165191324e-14   2.9488434518563680e-14   3.1053147439406826e-14   2.5399224662646740e-14   2.6890928224403446e-14   2.1683678713552869e-14   2.3097678914174469e-14   1.8350747912246368e-14   1.9682537981701221e-14   1.5408461761535246e-14   1.6653733004267347e-14   1.2863908645345866e-14   1.4018560834325236e-14   1.0723218805571838e-14   1.1783370029992464e-14   8.9915494983545924e-15   9.9535455388364588e-15   7.6730726294806907e-15   8.5334957616731467e-15   6.7709646914496114e-15   7.5266419044960063e-15   6.2873991058002194e-15   6.9354097448111716e-15   6.2235409816343155e-15   6.7612237848010721e-15   6.5795443400337219e-15   7.0045038429417714e-15   7.3545516761403048e-15   7.6646639927344793e-15   8.5466961214473362e-15   8.7401140509219836e-15   1.0153105861036218e-14   1.0228263318710881e-14   1.2169911108148214e-14   1.2125526954367382e-14   1.4592253325188918e-14   1.4427334280186624e-14   1.7414297108717119e-14   1.7128140504579460e-14   2.0629244096563618e-14   2.0221439130588407e-14   2.4229349399462690e-14   2.3699778344444579e-14   2.8205940200434397e-14   2.7554778726602038e-14   3.2549436827777583e-14   3.1777153470986557e-14   3.7249375568199942e-14   3.6356730618371811e-14   4.2294434148233899e-14   4.1282477884050003e-14   4.7672458617242934e-14   4.6542528691654709e-14   5.3370493324209801e-14   5.2124211605920201e-14   5.9374811230005462e-14   5.8014079854588683e-14   6.5670947846478876e-14   6.4197944534381002e-14   7.2243735257939220e-14   7.0660908310968022e-14   7.9077339470170094e-14   7.7387401601126430e-14   8.6155297915249287e-14   8.4361219909187924e-14   9.3460559426076467e-14   9.1565562779043082e-14   1.0097552527045313e-13   9.8983074782586785e-14   1.0868209157375103e-13   1.0659588650617634e-13   1.1656169279075895e-13   1.1438565822936634e-13   1.2459534666725454e-13   1.2233362400579645e-13   1.3276369928124603e-13   1.3042063652126237e-13   1.4104707318347194e-13   1.3862721401665046e-13   1.4942551305678364e-13   1.4693358593505187e-13   1.5787883486151812e-13   1.5531974189080549e-13   1.6638667399740475e-13   1.6376547897286806e-13   1.7492853480774865e-13   1.7225045103840927e-13   1.8348383937783303e-13   1.8075421693117879e-13   1.9203197764864994e-13   1.8925629063635697e-13   2.0055235662633210e-13   1.9773618997087868e-13   2.0902445043145213e-13   2.0617348622226517e-13   2.1742784918018322e-13   2.1454785311959157e-13   2.2574230869912458e-13   2.2283911632679720e-13   2.3394779905314217e-13   2.3102730128167883e-13   2.4202455282057342e-13   2.3909268182082902e-13   2.4995311262026657e-13   2.4701582757792883e-13   2.5771437814981357e-13   2.5477765086384051e-13   2.6528965206602643e-13   2.6235945212589632e-13   2.7266068504065796e-13   2.6974296578701089e-13   2.7980971988016205e-13   2.7691040354974731e-13   2.8671953395599243e-13   2.8384449743505479e-13   2.9337348085723217e-13   2.9052854135935659e-13   2.9975553057144101e-13   2.9694643119050618e-13   3.0585030782449117e-13   3.0308270349203025e-13   3.1164312914127768e-13   3.0892257256070120e-13   3.1712003811858831e-13   3.1445196586718157e-13   3.2226783864588563e-13   3.1965755743709776e-13   3.2707412681084800e-13   3.2452679986354171e-13   3.3152731985536646e-13   3.2904795341849738e-13   3.3561668378380738e-13   3.3321011352905662e-13   3.3933235742808223e-13   3.3700323546977125e-13   3.4266537464982568e-13   3.4041815595635580e-13   3.4560768171580901e-13   3.4344661149375844e-13   3.4815214960718212e-13   3.4608125158284831e-13   3.5029257616807610e-13   3.4831564539850980e-13   3.5202366917035275e-13   3.5014427798527217e-13   3.5334098262746549e-13   3.5156252798245429e-13   3.5424073123176864e-13   3.5256661310622887e-13   3.5471925196105399e-13   3.5315347593339330e-13   3.5477140654252822e-13   3.5332057121694766e-13   3.5438591208452297e-13   3.5306555849212620e-13   3.5353470705089930e-13   3.5238644845333310e-13   3.5217692871684093e-13   3.5128381676902201e-13   3.4344579046607965e-13   3.4981479281198844e-13   3.4456025942391114e-13   3.3562029489126131e-13   3.4204420123353857e-13   3.4112235665903007e-13   3.3908841444324639e-13   3.3831242919410468e-13   3.3575092325696135e-13   3.3510298458719728e-13   3.3203906593488212e-13   3.3151281403692437e-13   3.2796085495274481e-13   3.2755526556212914e-13   3.2352556742016086e-13   3.2324069639169857e-13   3.1874364959489430e-13   3.1857938140070756e-13   3.1362651255483450e-13   3.1358232837547123e-13   3.0818642971215207e-13   3.0826141635387612e-13   3.0243647724582450e-13   3.0262936445183522e-13   2.9639049003130661e-13   2.9669967913785182e-13   2.9006302256456546e-13   2.9048660643679173e-13   2.8346931110795672e-13   2.8400508831805922e-13   2.7662523563164520e-13   2.7727072162844293e-13   2.6954728065057420e-13   2.7029971750038552e-13   2.6225249512255855e-13   2.6310886067606501e-13   2.5475845105438061e-13   2.5571546774411051e-13   2.4708320111236398e-13   2.4813734503191979e-13   2.3924523490661282e-13   2.4039274504502447e-13   2.3126343407864046e-13   2.3250032223430249e-13   2.2315702731330924e-13   2.2447908792211954e-13   2.1494554355105946e-13   2.1634836439668823e-13   2.0664876490812052e-13   2.0812773782212904e-13   1.9828667927377119e-13   1.9983701168014938e-13   1.8987943179204561e-13   1.9149615826657795e-13   1.8144727645431480e-13   1.8312527110840350e-13   1.7301052751795691e-13   1.7474451606660143e-13   1.6458951002845355e-13   1.6637408300654313e-13   1.5620451141319629e-13   1.5803413698943276e-13   1.4787573213625868e-13   1.4974476970247238e-13   1.3962323738245005e-13   1.4152595116730180e-13   1.3146690857165844e-13   1.3339748136563467e-13   1.2342639523505766e-13   1.2537894268220266e-13   1.1552106818654786e-13   1.1748965265806986e-13   1.0776997217229542e-13   1.0974861759455625e-13   1.0019178078493785e-13   1.0217448667709323e-13   9.2804750817468141e-14   9.4785506809316706e-14   8.5626678596025058e-14   8.7599479031753229e-14   7.8674856988685523e-14   8.0633715335234633e-14   7.1966033854476408e-14   7.3904997165848207e-14   6.5516371560640844e-14   6.7429534900778676e-14   5.9341408243052250e-14   6.1222928729524511e-14   5.3456020108021618e-14   5.5300131158623315e-14   4.7874385880886725e-14   4.9675411059028880e-14   4.2609952345197622e-14   4.4362319017679463e-14   3.7675402275970951e-14   3.9373655070998793e-14   3.3082623621547746e-14   3.4721437532020337e-14   2.8842680992333178e-14   3.0416874237083574e-14   2.4965788998174018e-14   2.6470335467444694e-14   2.1461287550249704e-14   2.2891329025908522e-14   1.8337619528740623e-14   1.9688477248694568e-14   1.5602310297881421e-14   1.6869496304115627e-14   1.3261949624210398e-14   1.4441177535629385e-14   1.1322175823599756e-14   1.2409371192918059e-14   9.7876621457802503e-15   1.0778972261541104e-14   8.6621055472356427e-15   9.5539087064432495e-15   7.9482177571791273e-15   8.7371319976749237e-15   7.6477187682122927e-15   8.3306100031756163e-15   7.7613326684419269e-15   8.3353222578440103e-15   8.2887859401154193e-15   8.7512575870148886e-15   9.2288080537471230e-15   9.5774141352732815e-15   1.0579134603957073e-14   1.0811801818844600e-14   1.2336512676047888e-14   1.2451447056201963e-14   1.4496708850504476e-14   1.4492399961890976e-14   1.7054519096902267e-14   1.6929743895523207e-14   2.0003781689117592e-14   1.9757607291069079e-14   2.3337391776890649e-14   2.2969177710492401e-14   2.7047318540061256e-14   2.6556718385306235e-14   3.1124624683904329e-14   3.0511586829994599e-14   3.5559487802470138e-14   3.4824255551937905e-14   4.0341224098753005e-14   3.9484335204601907e-14   4.5458314221607257e-14   4.4480599347172102e-14   5.0898430847030014e-14   4.9801011772359185e-14   5.6648468405856827e-14   5.5432755334248569e-14   6.2694574817837059e-14   6.1362262869902100e-14   6.9022184684908946e-14   6.7575249789226524e-14   7.5616054530339866e-14   7.4056748706387928e-14   8.2460299255073566e-14   8.0791145309652434e-14   8.9538430822493966e-14   8.7762216022666108e-14   9.6833397525513011e-14   9.4953167076228380e-14   1.0432762545401529e-13   1.0234667500211169e-13   1.1200306057898829e-13   1.0992492845493510e-13   1.1984121231525255e-13   1.1766967084064925e-13   1.2782319808875854e-13   1.2556224453997299e-13   1.3592978889105231e-13   1.3358363596743438e-13   1.4414145546290239e-13   1.4171452076367146e-13   1.5243841533030393e-13   1.4993531122528472e-13   1.6080068069131959e-13   1.5822620284404486e-13   1.6920810622967199e-13   1.6656722219794777e-13   1.7764043804867633e-13   1.7493827514308104e-13   1.8607736206282974e-13   1.8331919514793832e-13   1.9449855313200956e-13   1.9168979173447563e-13   2.0288372407979446e-13   2.0002989947249073e-13   2.1121267439603943e-13   2.0831942629578230e-13   2.1946533900076161e-13   2.1653840174108197e-13   2.2762183658188429e-13   2.2466702546753672e-13   2.3566251748113363e-13   2.3268571466434553e-13   2.4356801088296626e-13   2.4057515105934705e-13   2.5131927160162985e-13   2.4831632800657569e-13   2.5889762613543951e-13   2.5589059561566147e-13   2.6628481705832892e-13   2.6327970590045015e-13   2.7346304752565719e-13   2.7046585685379473e-13   2.8041502380600355e-13   2.7743173497382621e-13   2.8712399709119123e-13   2.8416055718857352e-13   2.9357380336974671e-13   2.9063611085218245e-13   2.9974890276703651e-13   2.9684279307285051e-13   3.0563441639523622e-13   3.0276564773387863e-13   3.1121616209317836e-13   3.0839040145268177e-13   3.1648068839775241e-13   3.1370349784658968e-13   3.2141530597585427e-13   3.1869212926690996e-13   3.2600811811013204e-13   3.2334426742245555e-13   3.3024804751437160e-13   3.2764869108399706e-13   3.3412486160725222e-13   3.3159501222258977e-13   3.3762919396670858e-13   3.3517369861786303e-13   3.4075256204299645e-13   3.3837609397659517e-13   3.4348737880089894e-13   3.4119443436223466e-13   3.4582695586929433e-13   3.4362185985174267e-13   3.4776549006990558e-13   3.4565242003111266e-13   3.4929802113733211e-13   3.4728107123862772e-13   3.5042032850626147e-13   3.4850366300797207e-13   3.5112870671118858e-13   3.4931691258795004e-13   3.5141951422401807e-13   3.4971837882451815e-13   3.5128846700985043e-13   3.4970649654392886e-13   3.5073070405146769e-13   3.4928089529205865e-13   3.4974945735330575e-13   3.4844371112203024e-13   3.4839693153658820e-13   3.4720087992622297e-13   3.3954011662096908e-13   3.4559914952081209e-13   3.3989848506931612e-13   3.3088299250025284e-13   3.3724860613131625e-13   3.3621490223936385e-13   3.3417849783937525e-13   3.3327849937244973e-13   3.3073181087640958e-13   3.2995829757653778e-13   3.2691851724875204e-13   3.2626794156211345e-13   3.2274833986277262e-13   3.2221927563713910e-13   3.1823118495255839e-13   3.1782307140820872e-13   3.1337775407617252e-13   3.1309022959387144e-13   3.0819961426270302e-13   3.0803216972829566e-13   3.0270916187501244e-13   3.0266101427635252e-13   2.9691957531531370e-13   2.9698963499871950e-13   2.9084477109917934e-13   2.9103164059306011e-13   2.8449936332573409e-13   2.8480134386192710e-13   2.7789862464861457e-13   2.7831372510059638e-13   2.7105844674