<?xml version="1.0"?>
<VTKFile type="UnstructuredGrid"  version="0.1"  >
<UnstructuredGrid>
<Piece  NumberOfPoints="16641" NumberOfCells="32768">
<Points>
<DataArray  type="Float64"  NumberOfComponents="3"  format="ascii">0 0 0  0.0078125 0 0  0.015625 0 0  0.0234375 0 0  0.03125 0 0  0.0390625 0 0  0.046875 0 0  0.0546875 0 0  0.0625 0 0  0.0703125 0 0  0.078125 0 0  0.0859375 0 0  0.09375 0 0  0.1015625 0 0  0.109375 0 0  0.1171875 0 0  0.125 0 0  0.1328125 0 0  0.140625 0 0  0.1484375 0 0  0.15625 0 0  0.1640625 0 0  0.171875 0 0  0.1796875 0 0  0.1875 0 0  0.1953125 0 0  0.203125 0 0  0.2109375 0 0  0.21875 0 0  0.2265625 0 0  0.234375 0 0  0.2421875 0 0  0.25 0 0  0.2578125 0 0  0.265625 0 0  0.2734375 0 0  0.28125 0 0  0.2890625 0 0  0.296875 0 0  0.3046875 0 0  0.3125 0 0  0.3203125 0 0  0.328125 0 0  0.3359375 0 0  0.34375 0 0  0.3515625 0 0  0.359375 0 0  0.3671875 0 0  0.375 0 0  0.3828125 0 0  0.390625 0 0  0.3984375 0 0  0.40625 0 0  0.4140625 0 0  0.421875 0 0  0.4296875 0 0  0.4375 0 0  0.4453125 0 0  0.453125 0 0  0.4609375 0 0  0.46875 0 0  0.4765625 0 0  0.484375 0 0  0.4921875 0 0  0.5 0 0  0.5078125 0 0  0.515625 0 0  0.5234375 0 0  0.53125 0 0  0.5390625 0 0  0.546875 0 0  0.5546875 0 0  0.5625 0 0  0.5703125 0 0  0.578125 0 0  0.5859375 0 0  0.59375 0 0  0.6015625 0 0  0.609375 0 0  0.6171875 0 0  0.625 0 0  0.6328125 0 0  0.640625 0 0  0.6484375 0 0  0.65625 0 0  0.6640625 0 0  0.671875 0 0  0.6796875 0 0  0.6875 0 0  0.6953125 0 0  0.703125 0 0  0.7109375 0 0  0.71875 0 0  0.7265625 0 0  0.734375 0 0  0.7421875 0 0  0.75 0 0  0.7578125 0 0  0.765625 0 0  0.7734375 0 0  0.78125 0 0  0.7890625 0 0  0.796875 0 0  0.8046875 0 0  0.8125 0 0  0.8203125 0 0  0.828125 0 0  0.8359375 0 0  0.84375 0 0  0.8515625 0 0  0.859375 0 0  0.8671875 0 0  0.875 0 0  0.8828125 0 0  0.890625 0 0  0.8984375 0 0  0.90625 0 0  0.9140625 0 0  0.921875 0 0  0.9296875 0 0  0.9375 0 0  0.9453125 0 0  0.953125 0 0  0.9609375 0 0  0.96875 0 0  0.9765625 0 0  0.984375 0 0  0.9921875 0 0  1 0 0  0 0.0078125 0  0.0078125 0.0078125 0  0.015625 0.0078125 0  0.0234375 0.0078125 0  0.03125 0.0078125 0  0.0390625 0.0078125 0  0.046875 0.0078125 0  0.0546875 0.0078125 0  0.0625 0.0078125 0  0.0703125 0.0078125 0  0.078125 0.0078125 0  0.0859375 0.0078125 0  0.09375 0.0078125 0  0.1015625 0.0078125 0  0.109375 0.0078125 0  0.1171875 0.0078125 0  0.125 0.0078125 0  0.1328125 0.0078125 0  0.140625 0.0078125 0  0.1484375 0.0078125 0  0.15625 0.0078125 0  0.1640625 0.0078125 0  0.171875 0.0078125 0  0.1796875 0.0078125 0  0.1875 0.0078125 0  0.1953125 0.0078125 0  0.203125 0.0078125 0  0.2109375 0.0078125 0  0.21875 0.0078125 0  0.2265625 0.0078125 0  0.234375 0.0078125 0  0.2421875 0.0078125 0  0.25 0.0078125 0  0.2578125 0.0078125 0  0.265625 0.0078125 0  0.2734375 0.0078125 0  0.28125 0.0078125 0  0.2890625 0.0078125 0  0.296875 0.0078125 0  0.3046875 0.0078125 0  0.3125 0.0078125 0  0.3203125 0.0078125 0  0.328125 0.0078125 0  0.3359375 0.0078125 0  0.34375 0.0078125 0  0.3515625 0.0078125 0  0.359375 0.0078125 0  0.3671875 0.0078125 0  0.375 0.0078125 0  0.3828125 0.0078125 0  0.390625 0.0078125 0  0.3984375 0.0078125 0  0.40625 0.0078125 0  0.4140625 0.0078125 0  0.421875 0.0078125 0  0.4296875 0.0078125 0  0.4375 0.0078125 0  0.4453125 0.0078125 0  0.453125 0.0078125 0  0.4609375 0.0078125 0  0.46875 0.0078125 0  0.4765625 0.0078125 0  0.484375 0.0078125 0  0.4921875 0.0078125 0  0.5 0.0078125 0  0.5078125 0.0078125 0  0.515625 0.0078125 0  0.5234375 0.0078125 0  0.53125 0.0078125 0  0.5390625 0.0078125 0  0.546875 0.0078125 0  0.5546875 0.0078125 0  0.5625 0.0078125 0  0.5703125 0.0078125 0  0.578125 0.0078125 0  0.5859375 0.0078125 0  0.59375 0.0078125 0  0.6015625 0.0078125 0  0.609375 0.0078125 0  0.6171875 0.0078125 0  0.625 0.0078125 0  0.6328125 0.0078125 0  0.640625 0.0078125 0  0.6484375 0.0078125 0  0.65625 0.0078125 0  0.6640625 0.0078125 0  0.671875 0.0078125 0  0.6796875 0.0078125 0  0.6875 0.0078125 0  0.6953125 0.0078125 0  0.703125 0.0078125 0  0.7109375 0.0078125 0  0.71875 0.0078125 0  0.7265625 0.0078125 0  0.734375 0.0078125 0  0.7421875 0.0078125 0  0.75 0.0078125 0  0.7578125 0.0078125 0  0.765625 0.0078125 0  0.7734375 0.0078125 0  0.78125 0.0078125 0  0.7890625 0.0078125 0  0.796875 0.0078125 0  0.8046875 0.0078125 0  0.8125 0.0078125 0  0.8203125 0.0078125 0  0.828125 0.0078125 0  0.8359375 0.0078125 0  0.84375 0.0078125 0  0.8515625 0.0078125 0  0.859375 0.0078125 0  0.8671875 0.0078125 0  0.875 0.0078125 0  0.8828125 0.0078125 0  0.890625 0.0078125 0  0.8984375 0.0078125 0  0.90625 0.0078125 0  0.9140625 0.0078125 0  0.921875 0.0078125 0  0.9296875 0.0078125 0  0.9375 0.0078125 0  0.9453125 0.0078125 0  0.953125 0.0078125 0  0.9609375 0.0078125 0  0.96875 0.0078125 0  0.9765625 0.0078125 0  0.984375 0.0078125 0  0.9921875 0.0078125 0  1 0.0078125 0  0 0.015625 0  0.0078125 0.015625 0  0.015625 0.015625 0  0.0234375 0.015625 0  0.03125 0.015625 0  0.0390625 0.015625 0  0.046875 0.015625 0  0.0546875 0.015625 0  0.0625 0.015625 0  0.0703125 0.015625 0  0.078125 0.015625 0  0.0859375 0.015625 0  0.09375 0.015625 0  0.1015625 0.015625 0  0.109375 0.015625 0  0.1171875 0.015625 0  0.125 0.015625 0  0.1328125 0.015625 0  0.140625 0.015625 0  0.1484375 0.015625 0  0.15625 0.015625 0  0.1640625 0.015625 0  0.171875 0.015625 0  0.1796875 0.015625 0  0.1875 0.015625 0  0.1953125 0.015625 0  0.203125 0.015625 0  0.2109375 0.015625 0  0.21875 0.015625 0  0.2265625 0.015625 0  0.234375 0.015625 0  0.2421875 0.015625 0  0.25 0.015625 0  0.2578125 0.015625 0  0.265625 0.015625 0  0.2734375 0.015625 0  0.28125 0.015625 0  0.2890625 0.015625 0  0.296875 0.015625 0  0.3046875 0.015625 0  0.3125 0.015625 0  0.3203125 0.015625 0  0.328125 0.015625 0  0.3359375 0.015625 0  0.34375 0.015625 0  0.3515625 0.015625 0  0.359375 0.015625 0  0.3671875 0.015625 0  0.375 0.015625 0  0.3828125 0.015625 0  0.390625 0.015625 0  0.3984375 0.015625 0  0.40625 0.015625 0  0.4140625 0.015625 0  0.421875 0.015625 0  0.4296875 0.015625 0  0.4375 0.015625 0  0.4453125 0.015625 0  0.453125 0.015625 0  0.4609375 0.015625 0  0.46875 0.015625 0  0.4765625 0.015625 0  0.484375 0.015625 0  0.4921875 0.015625 0  0.5 0.015625 0  0.5078125 0.015625 0  0.515625 0.015625 0  0.5234375 0.015625 0  0.53125 0.015625 0  0.5390625 0.015625 0  0.546875 0.015625 0  0.5546875 0.015625 0  0.5625 0.015625 0  0.5703125 0.015625 0  0.578125 0.015625 0  0.5859375 0.015625 0  0.59375 0.015625 0  0.6015625 0.015625 0  0.609375 0.015625 0  0.6171875 0.015625 0  0.625 0.015625 0  0.6328125 0.015625 0  0.640625 0.015625 0  0.6484375 0.015625 0  0.65625 0.015625 0  0.6640625 0.015625 0  0.671875 0.015625 0  0.6796875 0.015625 0  0.6875 0.015625 0  0.6953125 0.015625 0  0.703125 0.015625 0  0.7109375 0.015625 0  0.71875 0.015625 0  0.7265625 0.015625 0  0.734375 0.015625 0  0.7421875 0.015625 0  0.75 0.015625 0  0.7578125 0.015625 0  0.765625 0.015625 0  0.7734375 0.015625 0  0.78125 0.015625 0  0.7890625 0.015625 0  0.796875 0.015625 0  0.8046875 0.015625 0  0.8125 0.015625 0  0.8203125 0.015625 0  0.828125 0.015625 0  0.8359375 0.015625 0  0.84375 0.015625 0  0.8515625 0.015625 0  0.859375 0.015625 0  0.8671875 0.015625 0  0.875 0.015625 0  0.8828125 0.015625 0  0.890625 0.015625 0  0.8984375 0.015625 0  0.90625 0.015625 0  0.9140625 0.015625 0  0.921875 0.015625 0  0.9296875 0.015625 0  0.9375 0.015625 0  0.9453125 0.015625 0  0.953125 0.015625 0  0.9609375 0.015625 0  0.96875 0.015625 0  0.9765625 0.015625 0  0.984375 0.015625 0  0.9921875 0.015625 0  1 0.015625 0  0 0.0234375 0  0.0078125 0.0234375 0  0.015625 0.0234375 0  0.0234375 0.0234375 0  0.03125 0.0234375 0  0.0390625 0.0234375 0  0.046875 0.0234375 0  0.0546875 0.0234375 0  0.0625 0.0234375 0  0.0703125 0.0234375 0  0.078125 0.0234375 0  0.0859375 0.0234375 0  0.09375 0.0234375 0  0.1015625 0.0234375 0  0.109375 0.0234375 0  0.1171875 0.0234375 0  0.125 0.0234375 0  0.1328125 0.0234375 0  0.140625 0.0234375 0  0.1484375 0.0234375 0  0.15625 0.0234375 0  0.1640625 0.0234375 0  0.171875 0.0234375 0  0.1796875 0.0234375 0  0.1875 0.0234375 0  0.1953125 0.0234375 0  0.203125 0.0234375 0  0.2109375 0.0234375 0  0.21875 0.0234375 0  0.2265625 0.0234375 0  0.234375 0.0234375 0  0.2421875 0.0234375 0  0.25 0.0234375 0  0.2578125 0.0234375 0  0.265625 0.0234375 0  0.2734375 0.0234375 0  0.28125 0.0234375 0  0.2890625 0.0234375 0  0.296875 0.0234375 0  0.3046875 0.0234375 0  0.3125 0.0234375 0  0.3203125 0.0234375 0  0.328125 0.0234375 0  0.3359375 0.0234375 0  0.34375 0.0234375 0  0.3515625 0.0234375 0  0.359375 0.0234375 0  0.3671875 0.0234375 0  0.375 0.0234375 0  0.3828125 0.0234375 0  0.390625 0.0234375 0  0.3984375 0.0234375 0  0.40625 0.0234375 0  0.4140625 0.0234375 0  0.421875 0.0234375 0  0.4296875 0.0234375 0  0.4375 0.0234375 0  0.4453125 0.0234375 0  0.453125 0.0234375 0  0.4609375 0.0234375 0  0.46875 0.0234375 0  0.4765625 0.0234375 0  0.484375 0.0234375 0  0.4921875 0.0234375 0  0.5 0.0234375 0  0.5078125 0.0234375 0  0.515625 0.0234375 0  0.5234375 0.0234375 0  0.53125 0.0234375 0  0.5390625 0.0234375 0  0.546875 0.0234375 0  0.5546875 0.0234375 0  0.5625 0.0234375 0  0.5703125 0.0234375 0  0.578125 0.0234375 0  0.5859375 0.0234375 0  0.59375 0.0234375 0  0.6015625 0.0234375 0  0.609375 0.0234375 0  0.6171875 0.0234375 0  0.625 0.0234375 0  0.6328125 0.0234375 0  0.640625 0.0234375 0  0.6484375 0.0234375 0  0.65625 0.0234375 0  0.6640625 0.0234375 0  0.671875 0.0234375 0  0.6796875 0.0234375 0  0.6875 0.0234375 0  0.6953125 0.0234375 0  0.703125 0.0234375 0  0.7109375 0.0234375 0  0.71875 0.0234375 0  0.7265625 0.0234375 0  0.734375 0.0234375 0  0.7421875 0.0234375 0  0.75 0.0234375 0  0.7578125 0.0234375 0  0.765625 0.0234375 0  0.7734375 0.0234375 0  0.78125 0.0234375 0  0.7890625 0.0234375 0  0.796875 0.0234375 0  0.8046875 0.0234375 0  0.8125 0.0234375 0  0.8203125 0.0234375 0  0.828125 0.0234375 0  0.8359375 0.0234375 0  0.84375 0.0234375 0  0.8515625 0.0234375 0  0.859375 0.0234375 0  0.8671
[...]
<CellData  Scalars="f_86"> 
<DataArray  type="Float64"  Name="f_86"  format="ascii">2.1109320803991635e-11   2.1054775502148907e-11   2.1396185508996475e-11   2.2167643625627170e-11   2.1340490856937594e-11   2.1882693450302546e-11   2.1196317058564664e-11   2.1689382003997538e-11   2.1004967490092719e-11   2.1494594117621665e-11   2.0779828668256498e-11   2.1274380874449974e-11   2.0526437087425834e-11   2.1026172932549025e-11   2.0247630451051497e-11   2.0751548329949979e-11   1.9945204040659242e-11   2.0452252580159639e-11   1.9620508449043230e-11   2.0129741610489285e-11   1.9274695278313678e-11   1.9785259607568933e-11   1.8908829488117355e-11   1.9419935685816060e-11   1.8523944784365766e-11   1.9034846224929654e-11   1.8121072333470219e-11   1.8631051259697512e-11   1.7701255990816375e-11   1.8209615170385091e-11   1.7265560314434759e-11   1.7771618277211059e-11   1.6815074506476517e-11   1.7318163015062695e-11   1.6350913923410867e-11   1.6850376899713941e-11   1.5874220135754968e-11   1.6369413457928390e-11   1.5386159986061775e-11   1.5876451899870354e-11   1.4887924062902061e-11   1.5372695925500569e-11   1.4380724729168590e-11   1.4859371982417795e-11   1.3865793818667710e-11   1.4337727126759616e-11   1.3344380150892905e-11   1.3809026583956317e-11   1.2817746865344689e-11   1.3274551140114169e-11   1.2287168642944633e-11   1.2735594365373815e-11   1.1753928816591511e-11   1.2193459735425473e-11   1.1219316450489554e-11   1.1649457644352177e-11   1.0684623346776978e-11   1.1104902414181938e-11   1.0151141020395626e-11   1.0561109218762645e-11   9.6201576787677458e-12   1.0019390999021812e-11   9.0929551656959388e-12   9.4810553601747635e-12   8.5708059232977495e-12   8.9474014852530980e-12   8.0549699778902882e-12   8.4197170341173906e-12   7.5466919240745335e-12   7.8992750893794031e-12   7.0471979645379704e-12   7.3873310957555800e-12   6.5576929714749284e-12   6.8851198803942754e-12   6.0793576164449014e-12   6.3938526908390880e-12   5.6133455166432192e-12   5.9147142861529202e-12   5.1607805067460735e-12   5.4488601056244428e-12   4.7227539165734506e-12   4.9974134928903756e-12   4.3003219652754029e-12   4.5614629935827849e-12   3.8945032154562274e-12   4.1420597609443876e-12   3.5062761454620372e-12   3.7402150082491365e-12   3.1365767832375707e-12   3.3568975900594719e-12   2.7862964660994275e-12   2.9930316773908480e-12   2.4562797016144190e-12   2.6494945315292759e-12   2.1473221279402924e-12   2.3271143967639712e-12   1.8601686161368269e-12   2.0266685098876831e-12   1.5955114651573248e-12   1.7488812298886766e-12   1.3539887523126317e-12   1.4944222997854954e-12   1.1361827917586264e-12   1.2639052307154643e-12   9.4261873332332169e-13   1.0578858339364430e-12   7.7376330861020359e-13   8.7686087993430337e-13   6.3002369915945221e-13   7.2126690263043035e-13   5.1174656881620752e-13   5.9147915617581490e-13   4.1921722142831542e-13   4.8781070649763409e-13   3.5265892217677529e-13   4.1051168297090690e-13   3.1223235841520344e-13   3.5976867602209139e-13   2.9803525577798279e-13   3.3570428956146659e-13   3.1010214478203937e-13   3.3837684738643285e-13   3.4840427717117751e-13   3.6778025338846987e-13   4.1284969854004483e-13   4.2384400724820609e-13   5.0328347061795834e-13   5.0643337754463306e-13   6.1948804714237876e-13   6.1534972387162905e-13   7.6118379074507635e-13   7.5033097752168115e-13   9.2802966372844746e-13   9.1105227772307710e-13   1.1196240334685438e-12   1.0971267454282254e-12   1.3355056500976121e-12   1.3081064257556549e-12   1.5751547545685782e-12   1.5434833617552100e-12   1.8379943339952467e-12   1.8026908214684589e-12   2.1233915118150977e-12   2.0851046592453173e-12   2.4306590652691437e-12   2.3900448210314129e-12   2.7590570878541998e-12   2.7167769873242899e-12   3.1077947826374466e-12   3.0645143373948838e-12   3.4760323323262250e-12   3.4324194352294770e-12   3.8628829632643649e-12   3.8196062721163224e-12   4.2674150513275715e-12   4.2251423688965542e-12   4.6886543821692389e-12   4.6480510466810210e-12   5.1255864871770512e-12   5.0873137606094361e-12   5.5771590973391303e-12   5.5418725602946799e-12   6.0422846516637347e-12   6.0106326459280642e-12   6.5198429581185066e-12   6.4924649772846151e-12   7.0086838407081426e-12   6.9862090181469191e-12   7.5076299536813224e-12   7.4906755252236970e-12   8.0154795854742608e-12   8.0046493913873570e-12   8.5310095632648086e-12   8.5268925802545183e-12   9.0529781894391790e-12   9.0561471190404968e-12   9.5801282357469483e-12   9.5911381032882291e-12   1.0111189970201348e-11   1.0130576775479291e-11   1.0644884218820905e-11   1.0673163613811344e-11   1.1179925405200487e-11   1.1217591461736993e-11   1.1715024706425707e-11   1.1762548681007955e-11   1.2248893085531245e-11   1.2306722272203703e-11   1.2780244450642072e-11   1.2848801059459855e-11   1.3307798703752044e-11   1.3387478816129857e-11   1.3830284843491357e-11   1.3921457406098746e-11   1.4346444009822010e-11   1.4449449880821806e-11   1.4855032518168437e-11   1.4970183586121457e-11   1.5354824845911093e-11   1.5482403170929408e-11   1.5844616571680163e-11   1.5984873606562765e-11   1.6323227286353989e-11   1.6476383105932856e-11   1.6789503427841147e-11   1.6955746008608994e-11   1.7242321042958248e-11   1.7421805570295564e-11   1.7680588531445236e-11   1.7873436685542361e-11   1.8103249250663797e-11   1.8309548482896355e-11   1.8509284103029171e-11   1.8729086847045131e-11   1.8897714010751641e-11   1.9131036759517183e-11   1.9267602350537973e-11   1.9514424527036409e-11   1.9618057270364980e-11   1.9878319783662740e-11   1.9948234026083442e-11   2.0221837273617139e-11   2.0257337221606139e-11   2.0544138285790991e-11   2.0544623139396242e-11   2.0844431650562279e-11   2.0809402124306018e-11   2.1121974075609416e-11   2.1051041291942024e-11   2.1376069456021909e-11   2.1268967760569854e-11   2.1606066525809009e-11   2.1462672980951043e-11   2.1811353650508514e-11   2.1631719180464648e-11   2.1991348489321654e-11   2.1775749835140384e-11   2.2145477919724477e-11   2.1894507530411530e-11   2.2273138458674961e-11   2.1987862684126934e-11   2.2373615379200665e-11   2.2055839331143474e-11   2.2445908687039250e-11   2.2098483494192485e-11   2.2488335471520407e-11   2.2114512708448079e-11   2.2497563176686256e-11   2.2092334381950358e-11   2.2466124430524674e-11   2.1956422879520666e-11   2.2375641441091427e-11   2.1213911116159612e-11   2.2176826406933565e-11   1.5285363083196076e-11   2.1840165825289016e-11   2.2100971895883638e-11   2.1256511268317873e-11   2.1931047437984740e-11   2.1887996859318490e-11   2.1691226007664534e-11   2.1756554685069292e-11   2.1487568304680214e-11   2.1524437071453047e-11   2.1267026624642425e-11   2.1277344770047957e-11   2.1022760266512093e-11   2.1023850394114554e-11   2.0754325642436791e-11   2.0755390890898470e-11   2.0462395742592971e-11   2.0467470934453903e-11   2.0147862935942901e-11   2.0158687925424362e-11   1.9811662906772406e-11   1.9828989815658202e-11   1.9454744389709453e-11   1.9478879355843874e-11   1.9078070380755185e-11   1.9109103248428783e-11   1.8682624283914575e-11   1.8720530772791675e-11   1.8269415050690804e-11   1.8314104541480710e-11   1.7839480332594442e-11   1.7890819333671457e-11   1.7393887978109492e-11   1.7451712221808861e-11   1.6933736237527603e-11   1.6997857273417918e-11   1.6460153096281330e-11   1.6530362093507000e-11   1.5974294902123206e-11   1.6050365058037411e-11   1.5477344591253608e-11   1.5559032777062162e-11   1.4970509547316823e-11   1.5057557548777205e-11   1.4455019198547359e-11   1.4547154763236706e-11   1.3932122462856647e-11   1.4029060211297918e-11   1.3403084998481544e-11   1.3504527312630288e-11   1.2869186393154751e-11   1.2974824251295834e-11   1.2331717246889948e-11   1.2441231065526514e-11   1.1791976168390655e-11   1.1905036657166896e-11   1.1251266781976357e-11   1.1367535786348253e-11   1.0710894638298212e-11   1.0830026003206871e-11   1.0172164142500652e-11   1.0293804593349274e-11   9.6363754680804993e-12   9.7601654970356648e-12   9.1048214516257451e-12   9.2303962030947615e-12   8.5787845337013840e-12   8.7057747107726626e-12   8.0595336699619165e-12   8.1875664584929578e-12   7.5483213138847155e-12   7.6770212848742390e-12   7.0463804218247189e-12   7.1753704661659463e-12   6.5549214899282636e-12   6.6838237310080796e-12   6.0751296582579512e-12   6.2035663795919049e-12   5.6081618589687487e-12   5.7357564241843391e-12   5.1551440460692342e-12   5.2815218241615092e-12   4.7171684970549241e-12   4.8419577599945006e-12   4.2952911771741908e-12   4.4181240144021875e-12   3.8905292106146449e-12   4.0110424168363090e-12   3.5038584373813221e-12   3.6216943890105253e-12   3.1362110573102372e-12   3.2510185880615753e-12   2.7884734066540905e-12   2.8999086488941237e-12   2.4614838078016581e-12   2.5692110298632262e-12   2.1560305720844577e-12   2.2597229836841719e-12   1.8728500874734419e-12   1.9721906332500610e-12   1.6126250623406243e-12   1.7073071842184423e-12   1.3759828719040744e-12   1.4657112528622282e-12   1.1634940618973624e-12   1.2479853299634847e-12   9.7567096312604827e-13   1.0546543788276307e-12   8.1296646988705618e-13   8.8618457777680400e-13   6.7577294664976710e-13   7.4298219407925765e-13   5.6442128624669371e-13   6.2539260760173410e-13   4.7918011316536204e-13   5.3369948082423093e-13   4.2025513961462649e-13   4.6812407803724258e-13   3.8778867049688085e-13   4.2882473135316416e-13   3.8185926246712248e-13   4.1589646223237390e-13   4.0248153604075904e-13   4.2937075278484812e-13   4.4960614212616715e-13   4.6921547059943166e-13   5.2311987994141050e-13   5.3533494762776104e-13   6.2284597171076912e-13   6.2757021063516588e-13   7.4854449257569679e-13   7.4569936922236484e-13   8.9991294340518921e-13   8.8943813849235393e-13   1.0765869827721075e-12   1.0584405387591258e-12   1.2781413116192520e-12   1.2522997277835699e-12   1.5040906842588411e-12   1.4705489618079110e-12   1.7538910881078979e-12   1.7126627486217314e-12   2.0269410531174854e-12   1.9780580942960705e-12   2.3225831010773524e-12   2.2660959124907797e-12   2.6401053268404149e-12   2.5760825602097384e-12   2.9787431031717623e-12   2.9072715158503679e-12   3.3376809531365353e-12   3.2588651757882990e-12   3.7160544739589260e-12   3.6300167591888336e-12   4.1129524525212836e-12   4.0198323722994407e-12   4.5274190491627211e-12   4.4273731441483234e-12   4.9584560713874385e-12   4.8516574691519188e-12   5.4050254302087505e-12   5.2916634324420584e-12   5.8660515862471588e-12   5.7463311847131107e-12   6.3404241874106085e-12   6.2145655651685417e-12   6.8270006983664591e-12   6.6952386912548322e-12   7.3246091757652577e-12   7.1871926895918858e-12   7.8320510827917774e-12   7.6892424857901554e-12   8.3481041725857174e-12   8.2001786428836662e-12   8.8715254332513642e-12   8.7187702741490446e-12   9.4010540650121493e-12   9.2437680126030748e-12   9.9354145355780068e-12   9.7739069993184005e-12   1.0473319613189059e-11   1.0307909914838691e-11   1.1013473510468406e-11   1.0844490081705570e-11   1.1554574952407979e-11   1.1382354514260992e-11   1.2095320324143162e-11   1.1920207045431379e-11   1.2634406800999430e-11   1.2456751426798091e-11   1.3170535481548575e-11   1.2990694424034185e-11   1.3702414495705674e-11   1.3520748924560842e-11   1.4228762115620446e-11   1.4045637019512683e-11   1.4748309783241102e-11   1.4564093009410850e-11   1.5259805233534708e-11   1.5074866478154064e-11   1.5762015395755105e-11   1.5576725211152491e-11   1.6253729387207503e-11   1.6068458124865651e-11   1.6733761395562722e-11   1.6548878115154087e-11   1.7200953462570343e-11   1.7016824793262118e-11   1.7654178243850499e-11   1.7471167229040260e-11   1.8092341648558258e-11   1.7910806464199910e-11   1.8514385377472264e-11   1.8334677983241840e-11   1.8919289364660357e-11   1.8741754002338607e-11   1.9306074042213267e-11   1.9131045588198707e-11   1.9673802472957423e-11   1.9501604533489049e-11   2.0021582272943305e-11   1.9852524945696586e-11   2.0348567215945951e-11   2.0182944427261500e-11   2.0653958512696888e-11   2.0492044707280717e-11   2.0937005458786919e-11   2.0779051451535808e-11   2.1197005183956995e-11   2.1043232881492542e-11   2.1433300801437300e-11   2.1283896472610583e-11   2.1645276657296847e-11   2.1500382591267559e-11   2.1832347932620480e-11   2.1692052947025862e-11   2.1993938511484613e-11   2.1858270034966462e-11   2.2129432599440197e-11   2.1998360327462973e-11   2.2238063317710527e-11   2.2111547254865274e-11   2.2318637508579613e-11   2.2196826493758294e-11   2.2368803040495341e-11   2.2252729450372032e-11   2.2382961775412740e-11   2.2276874029468950e-11   2.2346070465988878e-11   2.2265151208011729e-11   2.2215549977894127e-11   2.2210551554001057e-11   2.1878698473169878e-11   2.2103528739597189e-11   2.1177152555992721e-11   2.1949904198340839e-11   2.0993890216735447e-11   2.1874089398758773e-11   2.1708532220657551e-11   2.1106746888899767e-11   2.1691779689319193e-11   2.1544941761178333e-11   2.1474856879249864e-11   2.1432571171141005e-11   2.1241105754537156e-11   2.1239877762672331e-11   2.0997502739613904e-11   2.1000692256377293e-11   2.0737652401533693e-11   2.0738080730842264e-11   2.0458058285578516e-11   2.0457810117546413e-11   2.0157642471632553e-11   2.0159592274874717e-11   1.9836397388866502e-11   1.9842542117563074e-11   1.9494788939995718e-11   1.9506325882544500e-11   1.9133512009130918e-11   1.9151117638536191e-11   1.8753387136326794e-11   1.8777420664371954e-11   1.8355314684159412e-11   1.8385941374690720e-11   1.7940253184107817e-11   1.7977515903630395e-11   1.7509208223295117e-11   1.7553068929280750e-11   1.7063226016285307e-11   1.7113590220098092e-11   1.6603389095981254e-11   1.6660120643562988e-11   1.6130812943300883e-11   1.6193743226270403e-11   1.5646643012757416e-11   1.5715576933055185e-11   1.5152051907142739e-11   1.5226771914968343e-11   1.4648236609760107e-11   1.4728505545788354e-11   1.4136415653446257e-11   1.4221978879704310e-11   1.3617826280546432e-11   1.3708413371327361e-11   1.3093721539738540e-11   1.3189047661653989e-11   1.2565367342861964e-11   1.2665134479232525e-11   1.2034039451348495e-11   1.2137937527822670e-11   1.1501020498134790e-11   1.1608728395495787e-11   1.0967596915466065e-11   1.1078783460775770e-11   1.0435055870919416e-11   1.0549380812642940e-11   9.9046822057596855e-12   1.0021797164812147e-11   9.3777553683318046e-12   9.4973047711870369e-12   8.8555463533080133e-12   8.9771683664802664e-12   8.3393146353797804e-12   8.4626421283643681e-12   7.8303051973221809e-12   7.9549666532281338e-12   7.3297454954199791e-12   7.4553659728550598e-12   6.8388425458809570e-12   6.9650446072197933e-12   6.3587800173571562e-12   6.4851846727555875e-12   5.8907153833852166e-12   6.0169430292247128e-12   5.4357771440432838e-12   5.5614485056730347e-12   4.9950621217242969e-12   5.1197991790420273e-12   4.5696328185950547e-12   4.6930597309480636e-12   4.1605148497219873e-12   4.2822588864397969e-12   3.7686945037043599e-12   3.8883869436519938e-12   3.3951163488840486e-12   3.5123933822656068e-12   3.0406809693200061e-12   3.1551845825880397e-12   2.7062428006883916e-12   2.8176216434523259e-12   2.3926080729526435e-12   2.5005183122928375e-12   2.1005328683518599e-12   2.2046390184500249e-12   1.8307213027800660e-12   1.9306970446763829e-12   1.5838238407717453e-12   1.6793528044919041e-12   1.3604357169007557e-12   1.4512122462825157e-12   1.1610955170876804e-12   1.2468254104122850e-12   9.8628387034113777e-13   1.0666850903737940e-12   8.3642230553413476e-13   9.1122565653526570e-13   7.1187222697657963e-13   7.8082200457307422e-13   6.1293405065909615e-13   6.7578865770331334e-13   5.3984648066759321e-13   5.9637900847062902e-13   4.9278593506295874e-13   5.4278470844792312e-13   4.7186612263776823e-13   5.1513520848999533e-13   4.7713776962873364e-13   5.1349744654495486e-13   5.0858849827340557e-13   5.3787568806071543e-13   5.6614285711585745e-13   5.8821151566724351e-13   6.4966250641881645e-13   6.6438397017136671e-13   7.5894654518642219e-13   7.6620984179739082e-13   8.9373200505552950e-13   8.9344411531022842e-13   1.0536944792627417e-12   1.0457805537026047e-12   1.2384488961178249e-12   1.2228524409829748e-12   1.4475504653598593e-12   1.4242334686498561e-12   1.6804957320885496e-12   1.6494387517557514e-12   1.9367238038205999e-12   1.8979260081470233e-12   2.2156176862782838e-12   2.1690968552994581e-12   2.5165057813520432e-12   2.4622982578111036e-12   2.8386635035191563e-12   2.7768240984091869e-12   3.1813150136060354e-12   3.1119168694778587e-12   3.5436351041313003e-12   3.4667695142138058e-12   3.9247511679920593e-12   3.8405273518998744e-12   4.3237453170476130e-12   4.2322901449500608e-12   4.7396565736442422e-12   4.6411142604172863e-12   5.1714831950246483e-12   5.0660149436963298e-12   5.6181850876911614e-12   5.5059686917805121e-12   6.0786862964418165e-12   5.9599157076455216e-12   6.5518776090552326e-12   6.4267624545864356e-12   7.0366192131086291e-12   6.9053842888490446e-12   7.5317434432895009e-12   7.3946281541829951e-12   8.0360575807894955e-12   7.8933153692704154e-12   8.5483467506604837e-12   8.4002444536679712e-12   9.0673767984180093e-12   8.9141940003528756e-12   9.5918972911970575e-12   9.4339256427661386e-12   1.0120644506916556e-11   9.9581869974864444e-12   1.0652344474883617e-11   1.0485714696077336e-11   1.1185716030422347e-11   1.1015237379284409e-11   1.1719473894369583e-11   1.1545478792042990e-11   1.2252331739180862e-11   1.2075160807052863e-11   1.2783005300526529e-11   1.2603006492462526e-11   1.3310215420429424e-11   1.3127743157881850e-11   1.3832691112251954e-11   1.3648105404535156e-11   1.4349172620084948e-11   1.4162838138535341e-11   1.4858414369628145e-11   1.4670699507890259e-11   1.5359187966688515e-11   1.5170463911174096e-11   1.5850285069233765e-11   1.5660924824003471e-11   1.6330520262372420e-11   1.6140897658469378e-11   1.6798733799340248e-11   1.6609222494737262e-11   1.7253794291380598e-11   1.7064766738608567e-11   1.7694601285554107e-11   1.7506427706048230e-11   1.8120087712811871e-11   1.7933135032325288e-11   1.8529222198752104e-11   1.8343852962161711e-11   1.8921011197361416e-11   1.8737582467221500e-11   1.9294500829299292e-11   1.9113363105934141e-11   1.9648778517335596e-11   1.9470274641145943e-11   1.9982974085832538e-11   1.9807438242785683e-11   2.0296260314985705e-11   2.0124017202134895e-11   2.0587852549548624e-11   2.0419216931450863e-11   2.0857006904914927e-11   2.0692283954069532e-11   2.1103016092493042e-11   2.0942503378412426e-11   2.1325201319390960e-11   2.1169194126965464e-11   2.1522897128508368e-11   2.1371700582142433e-11   2.1695423248587427e-11   2.1549378684092124e-11   2.1842031418965997e-11   2.1701573047475214e-11   2.1961802081625764e-11   2.1827579703888372e-11   2.2053437100987477e-11   2.1926586279705475e-11   2.2114832854661659e-11   2.1997579354020591e-11   2.2142196806281121e-11   2.2039214810866036e-11   2.2128314524244572e-11   2.2049691281857693e-11   2.2059879005421811e-11   2.2026857464245818e-11   2.1917702632029566e-11   2.1969473259719405e-11   2.1704727918699842e-11   2.1882590634355734e-11   2.1587190653303283e-11   2.1792416917131288e-11   2.1424198560845592e-11   2.1757414249483564e-11   2.1415771020359856e-11   2.0864470856151917e-11   2.1355867011658500e-11   2.1240252151847241e-11   2.1177813370259825e-11   2.1094849792199916e-11   2.0948869697717698e-11   2.0905890579348811e-11   2.0697103949494112e-11   2.0675340609737155e-11   2.0427180488418093e-11   2.0414259801736505e-11   2.0138682534292016e-11   2.0130300520417695e-11   1.9830944083609322e-11   1.9826561004413247e-11   1.9503799696532187e-11   1.9503996520453437e-11   1.9157506925371995e-11   1.9162982991324877e-11   1.8792599151720600e-11   1.8803900945371789e-11   1.8409785288191890e-11   1.8427276909005812e-11   1.8009890706448586e-11   1.8033785091111287e-11   1.7593823299256285e-11   1.7624219209646408e-11   1.71625535170078