<?xml version="1.0"?>
<VTKFile type="UnstructuredGrid"  version="0.1"  >
<UnstructuredGrid>
<Piece  NumberOfPoints="16641" NumberOfCells="32768">
<Points>
<DataArray  type="Float64"  NumberOfComponents="3"  format="ascii">0 0 0  0.0078125 0 0  0.015625 0 0  0.0234375 0 0  0.03125 0 0  0.0390625 0 0  0.046875 0 0  0.0546875 0 0  0.0625 0 0  0.0703125 0 0  0.078125 0 0  0.0859375 0 0  0.09375 0 0  0.1015625 0 0  0.109375 0 0  0.1171875 0 0  0.125 0 0  0.1328125 0 0  0.140625 0 0  0.1484375 0 0  0.15625 0 0  0.1640625 0 0  0.171875 0 0  0.1796875 0 0  0.1875 0 0  0.1953125 0 0  0.203125 0 0  0.2109375 0 0  0.21875 0 0  0.2265625 0 0  0.234375 0 0  0.2421875 0 0  0.25 0 0  0.2578125 0 0  0.265625 0 0  0.2734375 0 0  0.28125 0 0  0.2890625 0 0  0.296875 0 0  0.3046875 0 0  0.3125 0 0  0.3203125 0 0  0.328125 0 0  0.3359375 0 0  0.34375 0 0  0.3515625 0 0  0.359375 0 0  0.3671875 0 0  0.375 0 0  0.3828125 0 0  0.390625 0 0  0.3984375 0 0  0.40625 0 0  0.4140625 0 0  0.421875 0 0  0.4296875 0 0  0.4375 0 0  0.4453125 0 0  0.453125 0 0  0.4609375 0 0  0.46875 0 0  0.4765625 0 0  0.484375 0 0  0.4921875 0 0  0.5 0 0  0.5078125 0 0  0.515625 0 0  0.5234375 0 0  0.53125 0 0  0.5390625 0 0  0.546875 0 0  0.5546875 0 0  0.5625 0 0  0.5703125 0 0  0.578125 0 0  0.5859375 0 0  0.59375 0 0  0.6015625 0 0  0.609375 0 0  0.6171875 0 0  0.625 0 0  0.6328125 0 0  0.640625 0 0  0.6484375 0 0  0.65625 0 0  0.6640625 0 0  0.671875 0 0  0.6796875 0 0  0.6875 0 0  0.6953125 0 0  0.703125 0 0  0.7109375 0 0  0.71875 0 0  0.7265625 0 0  0.734375 0 0  0.7421875 0 0  0.75 0 0  0.7578125 0 0  0.765625 0 0  0.7734375 0 0  0.78125 0 0  0.7890625 0 0  0.796875 0 0  0.8046875 0 0  0.8125 0 0  0.8203125 0 0  0.828125 0 0  0.8359375 0 0  0.84375 0 0  0.8515625 0 0  0.859375 0 0  0.8671875 0 0  0.875 0 0  0.8828125 0 0  0.890625 0 0  0.8984375 0 0  0.90625 0 0  0.9140625 0 0  0.921875 0 0  0.9296875 0 0  0.9375 0 0  0.9453125 0 0  0.953125 0 0  0.9609375 0 0  0.96875 0 0  0.9765625 0 0  0.984375 0 0  0.9921875 0 0  1 0 0  0 0.0078125 0  0.0078125 0.0078125 0  0.015625 0.0078125 0  0.0234375 0.0078125 0  0.03125 0.0078125 0  0.0390625 0.0078125 0  0.046875 0.0078125 0  0.0546875 0.0078125 0  0.0625 0.0078125 0  0.0703125 0.0078125 0  0.078125 0.0078125 0  0.0859375 0.0078125 0  0.09375 0.0078125 0  0.1015625 0.0078125 0  0.109375 0.0078125 0  0.1171875 0.0078125 0  0.125 0.0078125 0  0.1328125 0.0078125 0  0.140625 0.0078125 0  0.1484375 0.0078125 0  0.15625 0.0078125 0  0.1640625 0.0078125 0  0.171875 0.0078125 0  0.1796875 0.0078125 0  0.1875 0.0078125 0  0.1953125 0.0078125 0  0.203125 0.0078125 0  0.2109375 0.0078125 0  0.21875 0.0078125 0  0.2265625 0.0078125 0  0.234375 0.0078125 0  0.2421875 0.0078125 0  0.25 0.0078125 0  0.2578125 0.0078125 0  0.265625 0.0078125 0  0.2734375 0.0078125 0  0.28125 0.0078125 0  0.2890625 0.0078125 0  0.296875 0.0078125 0  0.3046875 0.0078125 0  0.3125 0.0078125 0  0.3203125 0.0078125 0  0.328125 0.0078125 0  0.3359375 0.0078125 0  0.34375 0.0078125 0  0.3515625 0.0078125 0  0.359375 0.0078125 0  0.3671875 0.0078125 0  0.375 0.0078125 0  0.3828125 0.0078125 0  0.390625 0.0078125 0  0.3984375 0.0078125 0  0.40625 0.0078125 0  0.4140625 0.0078125 0  0.421875 0.0078125 0  0.4296875 0.0078125 0  0.4375 0.0078125 0  0.4453125 0.0078125 0  0.453125 0.0078125 0  0.4609375 0.0078125 0  0.46875 0.0078125 0  0.4765625 0.0078125 0  0.484375 0.0078125 0  0.4921875 0.0078125 0  0.5 0.0078125 0  0.5078125 0.0078125 0  0.515625 0.0078125 0  0.5234375 0.0078125 0  0.53125 0.0078125 0  0.5390625 0.0078125 0  0.546875 0.0078125 0  0.5546875 0.0078125 0  0.5625 0.0078125 0  0.5703125 0.0078125 0  0.578125 0.0078125 0  0.5859375 0.0078125 0  0.59375 0.0078125 0  0.6015625 0.0078125 0  0.609375 0.0078125 0  0.6171875 0.0078125 0  0.625 0.0078125 0  0.6328125 0.0078125 0  0.640625 0.0078125 0  0.6484375 0.0078125 0  0.65625 0.0078125 0  0.6640625 0.0078125 0  0.671875 0.0078125 0  0.6796875 0.0078125 0  0.6875 0.0078125 0  0.6953125 0.0078125 0  0.703125 0.0078125 0  0.7109375 0.0078125 0  0.71875 0.0078125 0  0.7265625 0.0078125 0  0.734375 0.0078125 0  0.7421875 0.0078125 0  0.75 0.0078125 0  0.7578125 0.0078125 0  0.765625 0.0078125 0  0.7734375 0.0078125 0  0.78125 0.0078125 0  0.7890625 0.0078125 0  0.796875 0.0078125 0  0.8046875 0.0078125 0  0.8125 0.0078125 0  0.8203125 0.0078125 0  0.828125 0.0078125 0  0.8359375 0.0078125 0  0.84375 0.0078125 0  0.8515625 0.0078125 0  0.859375 0.0078125 0  0.8671875 0.0078125 0  0.875 0.0078125 0  0.8828125 0.0078125 0  0.890625 0.0078125 0  0.8984375 0.0078125 0  0.90625 0.0078125 0  0.9140625 0.0078125 0  0.921875 0.0078125 0  0.9296875 0.0078125 0  0.9375 0.0078125 0  0.9453125 0.0078125 0  0.953125 0.0078125 0  0.9609375 0.0078125 0  0.96875 0.0078125 0  0.9765625 0.0078125 0  0.984375 0.0078125 0  0.9921875 0.0078125 0  1 0.0078125 0  0 0.015625 0  0.0078125 0.015625 0  0.015625 0.015625 0  0.0234375 0.015625 0  0.03125 0.015625 0  0.0390625 0.015625 0  0.046875 0.015625 0  0.0546875 0.015625 0  0.0625 0.015625 0  0.0703125 0.015625 0  0.078125 0.015625 0  0.0859375 0.015625 0  0.09375 0.015625 0  0.1015625 0.015625 0  0.109375 0.015625 0  0.1171875 0.015625 0  0.125 0.015625 0  0.1328125 0.015625 0  0.140625 0.015625 0  0.1484375 0.015625 0  0.15625 0.015625 0  0.1640625 0.015625 0  0.171875 0.015625 0  0.1796875 0.015625 0  0.1875 0.015625 0  0.1953125 0.015625 0  0.203125 0.015625 0  0.2109375 0.015625 0  0.21875 0.015625 0  0.2265625 0.015625 0  0.234375 0.015625 0  0.2421875 0.015625 0  0.25 0.015625 0  0.2578125 0.015625 0  0.265625 0.015625 0  0.2734375 0.015625 0  0.28125 0.015625 0  0.2890625 0.015625 0  0.296875 0.015625 0  0.3046875 0.015625 0  0.3125 0.015625 0  0.3203125 0.015625 0  0.328125 0.015625 0  0.3359375 0.015625 0  0.34375 0.015625 0  0.3515625 0.015625 0  0.359375 0.015625 0  0.3671875 0.015625 0  0.375 0.015625 0  0.3828125 0.015625 0  0.390625 0.015625 0  0.3984375 0.015625 0  0.40625 0.015625 0  0.4140625 0.015625 0  0.421875 0.015625 0  0.4296875 0.015625 0  0.4375 0.015625 0  0.4453125 0.015625 0  0.453125 0.015625 0  0.4609375 0.015625 0  0.46875 0.015625 0  0.4765625 0.015625 0  0.484375 0.015625 0  0.4921875 0.015625 0  0.5 0.015625 0  0.5078125 0.015625 0  0.515625 0.015625 0  0.5234375 0.015625 0  0.53125 0.015625 0  0.5390625 0.015625 0  0.546875 0.015625 0  0.5546875 0.015625 0  0.5625 0.015625 0  0.5703125 0.015625 0  0.578125 0.015625 0  0.5859375 0.015625 0  0.59375 0.015625 0  0.6015625 0.015625 0  0.609375 0.015625 0  0.6171875 0.015625 0  0.625 0.015625 0  0.6328125 0.015625 0  0.640625 0.015625 0  0.6484375 0.015625 0  0.65625 0.015625 0  0.6640625 0.015625 0  0.671875 0.015625 0  0.6796875 0.015625 0  0.6875 0.015625 0  0.6953125 0.015625 0  0.703125 0.015625 0  0.7109375 0.015625 0  0.71875 0.015625 0  0.7265625 0.015625 0  0.734375 0.015625 0  0.7421875 0.015625 0  0.75 0.015625 0  0.7578125 0.015625 0  0.765625 0.015625 0  0.7734375 0.015625 0  0.78125 0.015625 0  0.7890625 0.015625 0  0.796875 0.015625 0  0.8046875 0.015625 0  0.8125 0.015625 0  0.8203125 0.015625 0  0.828125 0.015625 0  0.8359375 0.015625 0  0.84375 0.015625 0  0.8515625 0.015625 0  0.859375 0.015625 0  0.8671875 0.015625 0  0.875 0.015625 0  0.8828125 0.015625 0  0.890625 0.015625 0  0.8984375 0.015625 0  0.90625 0.015625 0  0.9140625 0.015625 0  0.921875 0.015625 0  0.9296875 0.015625 0  0.9375 0.015625 0  0.9453125 0.015625 0  0.953125 0.015625 0  0.9609375 0.015625 0  0.96875 0.015625 0  0.9765625 0.015625 0  0.984375 0.015625 0  0.9921875 0.015625 0  1 0.015625 0  0 0.0234375 0  0.0078125 0.0234375 0  0.015625 0.0234375 0  0.0234375 0.0234375 0  0.03125 0.0234375 0  0.0390625 0.0234375 0  0.046875 0.0234375 0  0.0546875 0.0234375 0  0.0625 0.0234375 0  0.0703125 0.0234375 0  0.078125 0.0234375 0  0.0859375 0.0234375 0  0.09375 0.0234375 0  0.1015625 0.0234375 0  0.109375 0.0234375 0  0.1171875 0.0234375 0  0.125 0.0234375 0  0.1328125 0.0234375 0  0.140625 0.0234375 0  0.1484375 0.0234375 0  0.15625 0.0234375 0  0.1640625 0.0234375 0  0.171875 0.0234375 0  0.1796875 0.0234375 0  0.1875 0.0234375 0  0.1953125 0.0234375 0  0.203125 0.0234375 0  0.2109375 0.0234375 0  0.21875 0.0234375 0  0.2265625 0.0234375 0  0.234375 0.0234375 0  0.2421875 0.0234375 0  0.25 0.0234375 0  0.2578125 0.0234375 0  0.265625 0.0234375 0  0.2734375 0.0234375 0  0.28125 0.0234375 0  0.2890625 0.0234375 0  0.296875 0.0234375 0  0.3046875 0.0234375 0  0.3125 0.0234375 0  0.3203125 0.0234375 0  0.328125 0.0234375 0  0.3359375 0.0234375 0  0.34375 0.0234375 0  0.3515625 0.0234375 0  0.359375 0.0234375 0  0.3671875 0.0234375 0  0.375 0.0234375 0  0.3828125 0.0234375 0  0.390625 0.0234375 0  0.3984375 0.0234375 0  0.40625 0.0234375 0  0.4140625 0.0234375 0  0.421875 0.0234375 0  0.4296875 0.0234375 0  0.4375 0.0234375 0  0.4453125 0.0234375 0  0.453125 0.0234375 0  0.4609375 0.0234375 0  0.46875 0.0234375 0  0.4765625 0.0234375 0  0.484375 0.0234375 0  0.4921875 0.0234375 0  0.5 0.0234375 0  0.5078125 0.0234375 0  0.515625 0.0234375 0  0.5234375 0.0234375 0  0.53125 0.0234375 0  0.5390625 0.0234375 0  0.546875 0.0234375 0  0.5546875 0.0234375 0  0.5625 0.0234375 0  0.5703125 0.0234375 0  0.578125 0.0234375 0  0.5859375 0.0234375 0  0.59375 0.0234375 0  0.6015625 0.0234375 0  0.609375 0.0234375 0  0.6171875 0.0234375 0  0.625 0.0234375 0  0.6328125 0.0234375 0  0.640625 0.0234375 0  0.6484375 0.0234375 0  0.65625 0.0234375 0  0.6640625 0.0234375 0  0.671875 0.0234375 0  0.6796875 0.0234375 0  0.6875 0.0234375 0  0.6953125 0.0234375 0  0.703125 0.0234375 0  0.7109375 0.0234375 0  0.71875 0.0234375 0  0.7265625 0.0234375 0  0.734375 0.0234375 0  0.7421875 0.0234375 0  0.75 0.0234375 0  0.7578125 0.0234375 0  0.765625 0.0234375 0  0.7734375 0.0234375 0  0.78125 0.0234375 0  0.7890625 0.0234375 0  0.796875 0.0234375 0  0.8046875 0.0234375 0  0.8125 0.0234375 0  0.8203125 0.0234375 0  0.828125 0.0234375 0  0.8359375 0.0234375 0  0.84375 0.0234375 0  0.8515625 0.0234375 0  0.859375 0.0234375 0  0.8671
[...]
<PointData  Scalars="f_31739-2"> 
<DataArray  type="Float64"  Name="f_31739-2"  format="ascii">-0.0000000000000000e+00  -0.0000000000000000e+00  -0.0000000000000000e+00  -0.0000000000000000e+00  -0.0000000000000000e+00  -0.0000000000000000e+00  -0.0000000000000000e+00  -0.0000000000000000e+00  -0.0000000000000000e+00  -0.0000000000000000e+00  -0.0000000000000000e+00  -0.0000000000000000e+00  -0.0000000000000000e+00  -0.0000000000000000e+00  -0.0000000000000000e+00  -0.0000000000000000e+00  -0.0000000000000000e+00  -0.0000000000000000e+00  -0.0000000000000000e+00  -0.0000000000000000e+00  -0.0000000000000000e+00  -0.0000000000000000e+00  -0.0000000000000000e+00  -0.0000000000000000e+00  -0.0000000000000000e+00  -0.0000000000000000e+00  -0.0000000000000000e+00  -0.0000000000000000e+00  -0.0000000000000000e+00  -0.0000000000000000e+00  -0.0000000000000000e+00  -0.0000000000000000e+00  -0.0000000000000000e+00  -0.0000000000000000e+00  -0.0000000000000000e+00  -0.0000000000000000e+00  -0.0000000000000000e+00  -0.0000000000000000e+00  -0.0000000000000000e+00  -0.0000000000000000e+00  -0.0000000000000000e+00  -0.0000000000000000e+00  -0.0000000000000000e+00  -0.0000000000000000e+00  -0.0000000000000000e+00  -0.0000000000000000e+00  -0.0000000000000000e+00  -0.0000000000000000e+00  -0.0000000000000000e+00  -0.0000000000000000e+00  -0.0000000000000000e+00  -0.0000000000000000e+00  -0.0000000000000000e+00  -0.0000000000000000e+00  -0.0000000000000000e+00  -0.0000000000000000e+00  -0.0000000000000000e+00  -0.0000000000000000e+00  -0.0000000000000000e+00  -0.0000000000000000e+00  -0.0000000000000000e+00  -0.0000000000000000e+00  -0.0000000000000000e+00  -0.0000000000000000e+00  -0.0000000000000000e+00  0.0000000000000000e+00  0.0000000000000000e+00  0.0000000000000000e+00  0.0000000000000000e+00  0.0000000000000000e+00  0.0000000000000000e+00  0.0000000000000000e+00  0.0000000000000000e+00  0.0000000000000000e+00  0.0000000000000000e+00  0.0000000000000000e+00  0.0000000000000000e+00  0.0000000000000000e+00  0.0000000000000000e+00  0.0000000000000000e+00  0.0000000000000000e+00  0.0000000000000000e+00  0.0000000000000000e+00  0.0000000000000000e+00  0.0000000000000000e+00  0.0000000000000000e+00  0.0000000000000000e+00  0.0000000000000000e+00  0.0000000000000000e+00  0.0000000000000000e+00  0.0000000000000000e+00  0.0000000000000000e+00  0.0000000000000000e+00  0.0000000000000000e+00  0.0000000000000000e+00  0.0000000000000000e+00  0.0000000000000000e+00  0.0000000000000000e+00  0.0000000000000000e+00  0.0000000000000000e+00  0.0000000000000000e+00  0.0000000000000000e+00  0.0000000000000000e+00  0.0000000000000000e+00  0.0000000000000000e+00  0.0000000000000000e+00  0.0000000000000000e+00  0.0000000000000000e+00  0.0000000000000000e+00  0.0000000000000000e+00  0.0000000000000000e+00  0.0000000000000000e+00  0.0000000000000000e+00  0.0000000000000000e+00  0.0000000000000000e+00  0.0000000000000000e+00  0.0000000000000000e+00  0.0000000000000000e+00  0.0000000000000000e+00  0.0000000000000000e+00  0.0000000000000000e+00  0.0000000000000000e+00  0.0000000000000000e+00  0.0000000000000000e+00  0.0000000000000000e+00  0.0000000000000000e+00  0.0000000000000000e+00  0.0000000000000000e+00  0.0000000000000000e+00  -1.9274437650860398e-04  -1.9246265525491396e-04  -1.9203695399108546e-04  -1.9147596187283483e-04  -1.9078484195067036e-04  -1.8996721275261650e-04  -1.8902588982652168e-04  -1.8796323218723179e-04  -1.8678132345308700e-04  -1.8548207493098581e-04  -1.8406728847690797e-04  -1.8253869704218931e-04  -1.8089799204105557e-04  -1.7914684251227629e-04  -1.7728690893825170e-04  -1.7531985345130264e-04  -1.7324734751582904e-04  -1.7107107779620144e-04  -1.6879275068741169e-04  -1.6641409583788500e-04  -1.6393686889705302e-04  -1.6136285365563321e-04  -1.5869386370202901e-04  -1.5593174368707668e-04  -1.5307837026716696e-04  -1.5013565277969293e-04  -1.4710553369287697e-04  -1.4398998886318984e-04  -1.4079102762687000e-04  -1.3751069274703452e-04  -1.3415106023384010e-04  -1.3071423905209242e-04  -1.2720237072833419e-04  -1.2361762886748659e-04  -1.1996221858755553e-04  -1.1623837587992301e-04  -1.1244836690116394e-04  -1.0859448720230222e-04  -1.0467906090008274e-04  -1.0070443979468550e-04  -9.6673002437637305e-05  -9.2587153153408493e-05  -8.8449321017794344e-05  -8.4261958796056288e-05  -8.0027541843255917e-05  -7.5748566969462055e-05  -7.1427551271931023e-05  -6.7067030936497870e-05  -6.2669560010187764e-05  -5.8237709146930317e-05  -5.3774064328199503e-05  -4.9281225560500607e-05  -4.4761805551041779e-05  -4.0218428363564550e-05  -3.5653728055685007e-05  -3.1070347299336776e-05  -2.6470935985805841e-05  -2.1858149816785537e-05  -1.7234648882806520e-05  -1.2603096230529438e-05  -7.9661564200979652e-06  -3.3264940740149155e-06  1.3132275812994769e-06  5.9503481798725151e-06  1.0582211685357040e-05  1.5206167863709754e-05  1.9819573758181334e-05  2.4419795165536498e-05  2.9004208112210264e-05  3.3570200329398793e-05  3.8115172725950232e-05  4.2636540857901370e-05  4.7131736393739837e-05  5.1598208574250640e-05  5.6033425666044578e-05  6.0434876407763389e-05  6.4800071448001991e-05  6.9126544774093934e-05  7.3411855130949902e-05  7.7653587428994062e-05  8.1849354140607825e-05  8.5996796684238756e-05  9.0093586795580448e-05  9.4137427885175178e-05  9.8126056381981903e-05  1.0205724306240300e-04  1.0592879436443375e-04  1.0973855368669817e-04  1.1348440267218109e-04  1.1716426247664458e-04  1.2077609502191212e-04  1.2431790423421274e-04  1.2778773726824179e-04  1.3118368571749005e-04  1.3450388681196759e-04  1.3774652460455636e-04  1.4090983114773092e-04  1.4399208766271326e-04  1.4699162570378811e-04  1.4990682832106947e-04  1.5273613122575064e-04  1.5547802396297903e-04  1.5813105109850221e-04  1.6069381342677543e-04  1.6316496921011420e-04  1.6554323546062779e-04  1.6782738927981981e-04  1.7001626927434262e-04  1.7210877707158733e-04  1.7410387896512681e-04  1.7600060772888568e-04  1.7779806465074774e-04  1.7949542185254774e-04  1.8109192498622854e-04  1.8258689642837122e-04  1.8397973914251095e-04  1.8526994144896599e-04  1.8645708304920123e-04  1.8754084282071167e-04  1.8852100917325889e-04  1.8939749422250507e-04  1.9017035386070376e-04  1.9083981734345319e-04  1.9140633308072956e-04  1.9187064394694716e-04  1.9223392121656924e-04  1.9249802885067688e-04  1.9266612591591677e-04  1.9274437650860398e-04  -3.8537265101197565e-04  -3.8478027450060664e-04  -3.8391129672412917e-04  -3.8277722183594393e-04  -3.8138599475165885e-04  -3.7974370255822046e-04  -3.7785536371291500e-04  -3.7572534059053948e-04  -3.7335757782601360e-04  -3.7075574978440759e-04  -3.6792335639231570e-04  -3.6486378791824334e-04  -3.6158037024093125e-04  -3.5807639738196309e-04  -3.5435515544062423e-04  -3.5041994054713186e-04  -3.4627407254041301e-04  -3.4192090551490363e-04  -3.3736383602334211e-04  -3.3260630948939190e-04  -3.2765182522735453e-04  -3.2250394035981717e-04  -3.1716627284929174e-04  -3.1164250380704295e-04  -3.0593637920415449e-04  -3.0005171108179085e-04  -2.9399237833688480e-04  -2.8776232714382321e-04  -2.8136557106076161e-04  -2.7480619086014247e-04  -2.6808833411575810e-04  -2.6121621457325742e-04  -2.5419411132651811e-04  -2.4702636781882983e-04  -2.3971739068496398e-04  -2.3227164844813019e-04  -2.2469367008362502e-04  -2.1698804345987940e-04  -2.0915941366598945e-04  -2.0121248123410385e-04  -1.9315200026394491e-04  -1.8498277645616779e-04  -1.7670966506065465e-04  -1.6833756874521386e-04  -1.5987143538992275e-04  -1.5131625581184897e-04  -1.4267706142454139e-04  -1.3395892183665740e-04  -1.2516694239348249e-04  -1.1630626166530598e-04  -1.0738204888608949e-04  -9.8399501346089105e-05  -8.9363841741509669e-05  -8.0280315484567206e-05  -7.1154187977023368e-05  -6.1990741850181079e-05  -5.2795274174264779e-05  -4.3573093640151539e-05  -3.4329517716064574e-05  -2.5069869782156133e-05  -1.5799476245506240e-05  -6.5236636382614133e-06  2.7522442986340182e-06  1.2022929543427988e-05  2.1283082730953387e-05  3.0527406096842861e-05  3.9750616426362927e-05  4.8947448005280081e-05  5.8112655570689167e-05  6.7241017259432370e-05  7.6327337551933944e-05  8.5366450209248783e-05  9.4353221201300355e-05  1.0328255162411144e-04  1.1214938060432728e-04  1.2094868818866165e-04  1.2967549821676981e-04  1.3832488117553746e-04  1.4689195703314863e-04  1.5537189805125428e-04  1.6375993157366644e-04  1.7205134279019583e-04  1.8024147747413292e-04  1.8832574469238231e-04  1.9629961948687145e-04  2.0415864552650692e-04  2.1189843772879524e-04  2.1951468485058716e-04  2.2700315204755801e-04  2.3435968340223729e-04  2.4158020442088574e-04  2.4866072449945592e-04  2.5559733935976445e-04  2.6238623345691225e-04  2.6902368235986221e-04  2.7550605510747334e-04  2.8182981654311274e-04  2.8799152963170874e-04  2.9398785776405526e-04  2.9981556705462281e-04  3.0547152864017268e-04  3.1095272098854775e-04  3.1625623222903776e-04  3.2137926251834571e-04  3.2631912645959837e-04  3.3107325559587615e-04  3.3563920100522846e-04  3.4001463603059378e-04  3.4419735918725597e-04  3.4818529730155803e-04  3.5197650895005635e-04  3.5556918828863297e-04  3.5896166938891109e-04  3.6215243123775495e-04  3.6514010360971989e-04  3.6792347409959002e-04  3.7050149671537263e-04  3.7287330260106163e-04  3.7503821371784351e-04  3.7699576072127236e-04  3.7874570693828118e-04  3.8028808147348513e-04  3.8162322645985417e-04  3.8275186715104966e-04  3.8367522080964915e-04  3.8439517573414056e-04  3.8491460732444381e-04  3.8523798699180390e-04  3.8537265101197565e-04  -5.7776879144038923e-04  -5.7684526195796192e-04  -5.7551806393839355e-04  -5.7379966291310608e-04  -5.7169965941061471e-04  -5.6922590439437647e-04  -5.6638515661050243e-04  -5.6318347059080860e-04  -5.5962643768354666e-04  -5.5571934363378526e-04  -5.5146727598005395e-04  -5.4687519965172457e-04  -5.4194801158615488e-04  -5.3669058105275695e-04  -5.3110777997045287e-04  -5.2520450604726739e-04  -5.1898570065613328e-04  -5.1245636277130302e-04  -5.0562155990046946e-04  -4.9848643668531044e-04  -4.9105622166264724e-04  -4.8333623255215571e-04  -4.7533188034663615e-04  -4.6704867241584947e-04  -4.5849221478741248e-04  -4.4966821373278615e-04  -4.4058247675989677e-04  -4.3124091309374915e-04  -4.2164953371085065e-04  -4.1181445098124468e-04  -4.0174187796262220e-04  -3.9143812738346085e-04  -3.8090961034635838e-04  -3.7016283477792164e-04  -3.5920440364778594e-04  -3.4804101297628568e-04  -3.3667944964769694e-04  -3.2512658904406864e-04  -3.1338939251268746e-04  -3.0147490467908537e-04  -2.8939025061605720e-04  -2.7714263287843480e-04  -2.6473932841223800e-04  -2.5218768534640172e-04  -2.3949511967445209e-04  -2.2666911183313553e-04  -2.1371720318452973e-04  -2.0064699240779653e-04  -1.8746613180636848e-04  -1.7418232353613643e-04  -1.6080331576002357e-04  -1.4733689873394027e-04  -1.3379090082908418e-04  -1.2017318449534344e-04  -1.0649164217040200e-04  -9.2754192139028063e-05  -7.8968774346898689e-05  -6.5143346173210793e-05  -5.1285878166297412e-05  -3.7404349746233937e-05  -2.3506744878505317e-05  -9.6010477225928927e-06  4.3047617406425503e-06  1.8202712099004207e-05  3.2084844912741652e-05  4.5943219128420579e-05  5.9769915499333538e-05  7.3557041008808885e-05  8.7296733293191372e-05  1.0098116506090943e-04  1.1460254850444896e-04  1.2815313970187224e-04  1.4162524300482320e-04  1.5501121540987056e-04  1.6830347091020541e-04  1.8149448482470543e-04  1.9457679810161576e-04  2.0754302159410205e-04  2.2038584030497605e-04  2.3309801759820861e-04  2.4567239937476509e-04  2.5810191821059632e-04  2.7037959745462712e-04  2.8249855528494992e-04  2.9445200872138527e-04  3.0623327759299557e-04  3.1783578845927414e-04  3.2925307848398374e-04  3.4047879926100451e-04  3.5150672059180478e-04  3.6233073421462200e-04  3.7294485748583554e-04  3.8334323701449800e-04  3.9352015225179945e-04  4.0347001903761476e-04  4.1318739310737806e-04  4.2266697356336917e-04  4.3190360631564963e-04  4.4089228749922632e-04  4.4962816687569104e-04  4.5810655122953490e-04  4.6632290777161496e-04  4.7427286756528597e-04  4.8195222899415053e-04  4.8935696129489377e-04  4.9648320818411213e-04  5.0332729161502393e-04  5.0988571570876413e-04  5.1615517091640713e-04  5.2213253848244008e-04  5.2781489529983019e-04  5.3319951927237341e-04  5.3828389533447374e-04  5.4306572232534409e-04  5.4754292097951556e-04  5.5171364338659336e-04  5.5557628440352949e-04  5.5912949569269837e-04  5.6237220334214141e-04  5.6530363045637457e-04  5.6792332678343605e-04  5.7023120853930825e-04  5.7222761342771457e-04  5.7391337906443469e-04  5.7528995889128125e-04  5.7635960086111296e-04  5.7712563561436773e-04  5.7759295660656646e-04  5.7776879144038923e-04  -7.6981690555300583e-04  -7.6854657904906060e-04  -7.6674875888339052e-04  -7.6443627330925138e-04  -7.6161980262002226e-04  -7.5830853632507709e-04  -7.5451066206696387e-04  -7.5023369506294405e-04  -7.4548469933000063e-04  -7.4027043978926567e-04  -7.3459748992593210e-04  -7.2847231001586950e-04  -7.2190130521563862e-04  -7.1489086947378782e-04  -7.0744741921058079e-04  -6.9957741945526235e-04  -6.9128740431589094e-04  -6.8258399311526283e-04  -6.7347390315811119e-04  -6.6396395983936299e-04  -6.5406110462303338e-04  -6.4377240129234845e-04  -6.3310504077791633e-04  -6.2206634480177990e-04  -6.1066376852387659e-04  -5.9890490233861511e-04  -5.8679747293990091e-04  -5.7434934375029400e-04  -5.6156851479233856e-04  -5.4846312206642469e-04  -5.3504143648862084e-04  -5.2131186243342675e-04  -5.0728293591927791e-04  -4.9296332246928892e-04  -4.7836181467504792e-04  -4.6348732948773750e-04  -4.4834890525756769e-04  -4.3295569854051602e-04  -4.1731698068866118e-04  -4.0144213423925199e-04  -3.8534064911580805e-04  -3.6902211865361053e-04  -3.5249623546075858e-04  -3.3577278712519388e-04  -3.1886165177722148e-04  -3.0177279351669388e-04  -2.8451625771319428e-04  -2.6710216618729962e-04  -2.4954071228040862e-04  -2.3184215582054793e-04  -2.1401681799099699e-04  -1.9607507610846904e-04  -1.7802735831730127e-04  -1.5988413820586405e-04  -1.4165592935132343e-04  -1.2335327979865171e-04  -1.0498676647960392e-04  -8.6566989577334570e-05  -6.8104566842129953e-05  -4.9610127863697997e-05  -3.1094308305271799e-05  -1.2567744104708206e-05  5.9589343522691006e-06  2.4475108081696969e-05  4.2970175368930095e-05  6.1433557649278960e-05  7.9854705397003285e-05  9.8223104017904355e-05  1.1652827974103076e-04  1.3475980550483075e-04  1.5290730683352520e-04  1.7096046769918993e-04  1.8890903636538015e-04  2.0674283120819669e-04  2.2445174651073064e-04  2.4202575822687361e-04  2.5945492971089155e-04  2.7672941740887361e-04  2.9383947650868337e-04  3.1077546654491203e-04  3.2752785695570777e-04  3.4408723258838803e-04  3.6044429915101702e-04  3.7658988860722207e-04  3.9251496451214268e-04  4.0821062728702028e-04  4.2366811943088856e-04  4.3887883066779987e-04  4.5383430302848861e-04  4.6852623586582755e-04  4.8294649080386987e-04  4.9708709662087938e-04  5.1094025406735037e-04  5.2449834062081354e-04  5.3775391518003925e-04  5.5069972270221695e-04  5.6332869878795717e-04  5.7563397422028006e-04  5.8760887946535676e-04  5.9924694914476767e-04  6.1054192649137703e-04  6.2148776780369301e-04  6.3207864691706994e-04  6.4230895971414883e-04  6.5217332870225436e-04  6.6166660769169361e-04  6.7078388661692202e-04  6.7952049655261595e-04  6.8787201498942123e-04  6.9583427145057002e-04  7.0340335355184070e-04  7.1057561363513247e-04  7.1734767614288768e-04  7.2371644595013924e-04  7.2967911793815686e-04  7.3523318818649629e-04  7.4037646729011280e-04  7.4510709649314372e-04  7.4942356759944860e-04  7.5332474801806479e-04  7.5680991290641799e-04  7.5987878731734171e-04  7.6253160276979458e-04  7.6476917515482803e-04  7.6659301503218002e-04  7.6800548802177858e-04  7.6901005188812074e-04  7.6961160030284575e-04  7.6981690555300583e-04  -9.6140131074702530e-04  -9.5977179551731630e-04  -9.5749312294408050e-04  -9.5457833069788019e-04  -9.5103888237389246e-04  -9.4688504168659586e-04  -9.4212621347854284e-04  -9.3677120583953875e-04  -9.3082842157070594e-04  -9.2430599724403469e-04  -9.1721190539906076e-04  -9.0955403093116196e-04  -9.0134022914563903e-04  -8.9257837051811108e-04  -8.8327637561500080e-04  -8.7344224259065318e-04  -8.6308406898641312e-04  -8.5221006908632905e-04  -8.4082858775657698e-04  -8.2894811146366754e-04  -8.1657727699941448e-04  -8.0372487831857555e-04  -7.9039987180481010e-04  -7.7661138021298086e-04  -7.6236869548468604e-04  -7.4768128059493622e-04  -7.3255877055763377e-04  -7.1701097269414487e-04  -7.0104786625087810e-04  -6.8467960143720743e-04  -6.6791649794356210e-04  -6.5076904299021722e-04  -6.3324788894984709e-04  -6.1536385058078317e-04  -5.9712790190308512e-04  -5.7855117274536224e-04  -5.5964494498691347e-04  -5.4042064851721704e-04  -5.2088985693201544e-04  -5.0106428298384356e-04  -4.8095577380284703e-04  -4.6057630590249732e-04  -4.3993797998368426e-04  -4.1905301554961868e-04  -3.9793374534313519e-04  -3.7659260961728854e-04  -3.5504215024957566e-04  -3.3329500470946416e-04  -3.1136389988852144e-04  -2.8926164580198521e-04  -2.6700112917034955e-04  -2.4459530688920471e-04  -2.2205719939515773e-04  -1.9939988393568605e-04  -1.7663648775030210e-04  -1.5378018117040825e-04  -1.3084417064494446e-04  -1.0784169169878576e-04  -8.4786001830728017e-05  -6.1690373357784427e-05  -3.8568086212341445e-05  -1.5432420698670725e-05  7.7033497849212989e-06  3.0825966051981253e-05  5.3922190455758813e-05  7.6978814232920949e-05  9.9982664857219361e-05  1.2292061339727869e-04  1.4577958187273482e-04  1.6854655060308051e-04  1.9120856554374685e-04  2.1375274560386990e-04  2.3616628994056283e-04  2.5843648522441036e-04  2.8055071287119319e-04  3.0249645623482707e-04  3.2426130775677509e-04  3.4583297606730789e-04  3.6719929303411332e-04  3.8834822075398519e-04  4.0926785848347820e-04  4.2994644950471070e-04  4.5037238792255252e-04  4.7053422538990356e-04  4.9042067775795066e-04  5.1002063164859533e-04  5.2932315094658320e-04  5.4831748320934134e-04  5.6699306599293595e-04  5.8533953309300977e-04  6.0334672070019336e-04  6.2100467347008252e-04  6.3830365050866061e-04  6.5523413127477207e-04  6.7178682140250239e-04  6.8795265844707576e-04  7.0372281755949010e-04  7.1908871709659749e-04  7.3404202417506371e-04  7.4857466017992495e-04  7.6267880624097484e-04  7.7634690869330552e-04  7.8957168454213704e-04  8.0234612695644406e-04  8.1466351082157436e-04  8.2651739838780216e-04  8.3790164506015487e-04  8.4881040538550031e-04  8.5923813930602571e-04  8.6917961876525614e-04  8.7862993477422690e-04  8.8758450507342933e-04  8.9603908256272831e-04  9.0398976471968266e-04  9.1143300429129346e-04  9.1836562163175061e-04  9.2478481917898561e-04  9.3068819873072788e-04  9.3607378241931623e-04  9.4094003862944906e-04  9.4528591461204379e-04  9.4911087831094218e-04  9.5241497307606596e-04  9.5519889067074819e-04  9.5746407042662915e-04  9.5921283519725042e-04  9.6044857558887477e-04  9.6117598493115181e-04  9.6140131074702530e-04  -1.1524066037405614e-03  -1.1504079004251188e-03  -1.1476399940232957e-03  -1.1441161284366935e-03  -1.1398484053950966e-03  -1.1348479982073818e-03  -1.1291253824002026e-03  -1.1226905356933462e-03  -1.1155530969251403e-03  -1.1077224884149851e-03  -1.0992080096064452e-03  -1.0900189091237911e-03  -1.0801644407534040e-03  -1.0696539073759385e-03  -1.0584966957487300e-03  -1.0467023042356040e-03  -1.0342803650186198e-03  -1.0212406619306024e-03  -1.0075931447651686e-03  -9.9334794071739840e-04  -9.7851536345894405e-04  -9.6310592024065496e-04  -9.4713031733254524e-04  -9.3059946404771892e-04  -9.1352447554839589e-04  -8.9591667459471480e-04  -8.7778759236757382e-04  -8.5914896847387652e-04  -8.4001275022417467e-04  -8.2039109125819551e-04  -8.0029634958197625e-04  -7.7974108507097503e-04  -7.5873805648568235e-04  -7.3730021804014592e-04  -7.1544071555852305e-04  -6.9317288225055878e-04  -6.7051023413341082e-04  -6.4746646512422220e-04  -6.2