<?xml version="1.0"?>
<VTKFile type="UnstructuredGrid"  version="0.1"  >
<UnstructuredGrid>
<Piece  NumberOfPoints="16641" NumberOfCells="32768">
<Points>
<DataArray  type="Float64"  NumberOfComponents="3"  format="ascii">0 0 0  0.0078125 0 0  0.015625 0 0  0.0234375 0 0  0.03125 0 0  0.0390625 0 0  0.046875 0 0  0.0546875 0 0  0.0625 0 0  0.0703125 0 0  0.078125 0 0  0.0859375 0 0  0.09375 0 0  0.1015625 0 0  0.109375 0 0  0.1171875 0 0  0.125 0 0  0.1328125 0 0  0.140625 0 0  0.1484375 0 0  0.15625 0 0  0.1640625 0 0  0.171875 0 0  0.1796875 0 0  0.1875 0 0  0.1953125 0 0  0.203125 0 0  0.2109375 0 0  0.21875 0 0  0.2265625 0 0  0.234375 0 0  0.2421875 0 0  0.25 0 0  0.2578125 0 0  0.265625 0 0  0.2734375 0 0  0.28125 0 0  0.2890625 0 0  0.296875 0 0  0.3046875 0 0  0.3125 0 0  0.3203125 0 0  0.328125 0 0  0.3359375 0 0  0.34375 0 0  0.3515625 0 0  0.359375 0 0  0.3671875 0 0  0.375 0 0  0.3828125 0 0  0.390625 0 0  0.3984375 0 0  0.40625 0 0  0.4140625 0 0  0.421875 0 0  0.4296875 0 0  0.4375 0 0  0.4453125 0 0  0.453125 0 0  0.4609375 0 0  0.46875 0 0  0.4765625 0 0  0.484375 0 0  0.4921875 0 0  0.5 0 0  0.5078125 0 0  0.515625 0 0  0.5234375 0 0  0.53125 0 0  0.5390625 0 0  0.546875 0 0  0.5546875 0 0  0.5625 0 0  0.5703125 0 0  0.578125 0 0  0.5859375 0 0  0.59375 0 0  0.6015625 0 0  0.609375 0 0  0.6171875 0 0  0.625 0 0  0.6328125 0 0  0.640625 0 0  0.6484375 0 0  0.65625 0 0  0.6640625 0 0  0.671875 0 0  0.6796875 0 0  0.6875 0 0  0.6953125 0 0  0.703125 0 0  0.7109375 0 0  0.71875 0 0  0.7265625 0 0  0.734375 0 0  0.7421875 0 0  0.75 0 0  0.7578125 0 0  0.765625 0 0  0.7734375 0 0  0.78125 0 0  0.7890625 0 0  0.796875 0 0  0.8046875 0 0  0.8125 0 0  0.8203125 0 0  0.828125 0 0  0.8359375 0 0  0.84375 0 0  0.8515625 0 0  0.859375 0 0  0.8671875 0 0  0.875 0 0  0.8828125 0 0  0.890625 0 0  0.8984375 0 0  0.90625 0 0  0.9140625 0 0  0.921875 0 0  0.9296875 0 0  0.9375 0 0  0.9453125 0 0  0.953125 0 0  0.9609375 0 0  0.96875 0 0  0.9765625 0 0  0.984375 0 0  0.9921875 0 0  1 0 0  0 0.0078125 0  0.0078125 0.0078125 0  0.015625 0.0078125 0  0.0234375 0.0078125 0  0.03125 0.0078125 0  0.0390625 0.0078125 0  0.046875 0.0078125 0  0.0546875 0.0078125 0  0.0625 0.0078125 0  0.0703125 0.0078125 0  0.078125 0.0078125 0  0.0859375 0.0078125 0  0.09375 0.0078125 0  0.1015625 0.0078125 0  0.109375 0.0078125 0  0.1171875 0.0078125 0  0.125 0.0078125 0  0.1328125 0.0078125 0  0.140625 0.0078125 0  0.1484375 0.0078125 0  0.15625 0.0078125 0  0.1640625 0.0078125 0  0.171875 0.0078125 0  0.1796875 0.0078125 0  0.1875 0.0078125 0  0.1953125 0.0078125 0  0.203125 0.0078125 0  0.2109375 0.0078125 0  0.21875 0.0078125 0  0.2265625 0.0078125 0  0.234375 0.0078125 0  0.2421875 0.0078125 0  0.25 0.0078125 0  0.2578125 0.0078125 0  0.265625 0.0078125 0  0.2734375 0.0078125 0  0.28125 0.0078125 0  0.2890625 0.0078125 0  0.296875 0.0078125 0  0.3046875 0.0078125 0  0.3125 0.0078125 0  0.3203125 0.0078125 0  0.328125 0.0078125 0  0.3359375 0.0078125 0  0.34375 0.0078125 0  0.3515625 0.0078125 0  0.359375 0.0078125 0  0.3671875 0.0078125 0  0.375 0.0078125 0  0.3828125 0.0078125 0  0.390625 0.0078125 0  0.3984375 0.0078125 0  0.40625 0.0078125 0  0.4140625 0.0078125 0  0.421875 0.0078125 0  0.4296875 0.0078125 0  0.4375 0.0078125 0  0.4453125 0.0078125 0  0.453125 0.0078125 0  0.4609375 0.0078125 0  0.46875 0.0078125 0  0.4765625 0.0078125 0  0.484375 0.0078125 0  0.4921875 0.0078125 0  0.5 0.0078125 0  0.5078125 0.0078125 0  0.515625 0.0078125 0  0.5234375 0.0078125 0  0.53125 0.0078125 0  0.5390625 0.0078125 0  0.546875 0.0078125 0  0.5546875 0.0078125 0  0.5625 0.0078125 0  0.5703125 0.0078125 0  0.578125 0.0078125 0  0.5859375 0.0078125 0  0.59375 0.0078125 0  0.6015625 0.0078125 0  0.609375 0.0078125 0  0.6171875 0.0078125 0  0.625 0.0078125 0  0.6328125 0.0078125 0  0.640625 0.0078125 0  0.6484375 0.0078125 0  0.65625 0.0078125 0  0.6640625 0.0078125 0  0.671875 0.0078125 0  0.6796875 0.0078125 0  0.6875 0.0078125 0  0.6953125 0.0078125 0  0.703125 0.0078125 0  0.7109375 0.0078125 0  0.71875 0.0078125 0  0.7265625 0.0078125 0  0.734375 0.0078125 0  0.7421875 0.0078125 0  0.75 0.0078125 0  0.7578125 0.0078125 0  0.765625 0.0078125 0  0.7734375 0.0078125 0  0.78125 0.0078125 0  0.7890625 0.0078125 0  0.796875 0.0078125 0  0.8046875 0.0078125 0  0.8125 0.0078125 0  0.8203125 0.0078125 0  0.828125 0.0078125 0  0.8359375 0.0078125 0  0.84375 0.0078125 0  0.8515625 0.0078125 0  0.859375 0.0078125 0  0.8671875 0.0078125 0  0.875 0.0078125 0  0.8828125 0.0078125 0  0.890625 0.0078125 0  0.8984375 0.0078125 0  0.90625 0.0078125 0  0.9140625 0.0078125 0  0.921875 0.0078125 0  0.9296875 0.0078125 0  0.9375 0.0078125 0  0.9453125 0.0078125 0  0.953125 0.0078125 0  0.9609375 0.0078125 0  0.96875 0.0078125 0  0.9765625 0.0078125 0  0.984375 0.0078125 0  0.9921875 0.0078125 0  1 0.0078125 0  0 0.015625 0  0.0078125 0.015625 0  0.015625 0.015625 0  0.0234375 0.015625 0  0.03125 0.015625 0  0.0390625 0.015625 0  0.046875 0.015625 0  0.0546875 0.015625 0  0.0625 0.015625 0  0.0703125 0.015625 0  0.078125 0.015625 0  0.0859375 0.015625 0  0.09375 0.015625 0  0.1015625 0.015625 0  0.109375 0.015625 0  0.1171875 0.015625 0  0.125 0.015625 0  0.1328125 0.015625 0  0.140625 0.015625 0  0.1484375 0.015625 0  0.15625 0.015625 0  0.1640625 0.015625 0  0.171875 0.015625 0  0.1796875 0.015625 0  0.1875 0.015625 0  0.1953125 0.015625 0  0.203125 0.015625 0  0.2109375 0.015625 0  0.21875 0.015625 0  0.2265625 0.015625 0  0.234375 0.015625 0  0.2421875 0.015625 0  0.25 0.015625 0  0.2578125 0.015625 0  0.265625 0.015625 0  0.2734375 0.015625 0  0.28125 0.015625 0  0.2890625 0.015625 0  0.296875 0.015625 0  0.3046875 0.015625 0  0.3125 0.015625 0  0.3203125 0.015625 0  0.328125 0.015625 0  0.3359375 0.015625 0  0.34375 0.015625 0  0.3515625 0.015625 0  0.359375 0.015625 0  0.3671875 0.015625 0  0.375 0.015625 0  0.3828125 0.015625 0  0.390625 0.015625 0  0.3984375 0.015625 0  0.40625 0.015625 0  0.4140625 0.015625 0  0.421875 0.015625 0  0.4296875 0.015625 0  0.4375 0.015625 0  0.4453125 0.015625 0  0.453125 0.015625 0  0.4609375 0.015625 0  0.46875 0.015625 0  0.4765625 0.015625 0  0.484375 0.015625 0  0.4921875 0.015625 0  0.5 0.015625 0  0.5078125 0.015625 0  0.515625 0.015625 0  0.5234375 0.015625 0  0.53125 0.015625 0  0.5390625 0.015625 0  0.546875 0.015625 0  0.5546875 0.015625 0  0.5625 0.015625 0  0.5703125 0.015625 0  0.578125 0.015625 0  0.5859375 0.015625 0  0.59375 0.015625 0  0.6015625 0.015625 0  0.609375 0.015625 0  0.6171875 0.015625 0  0.625 0.015625 0  0.6328125 0.015625 0  0.640625 0.015625 0  0.6484375 0.015625 0  0.65625 0.015625 0  0.6640625 0.015625 0  0.671875 0.015625 0  0.6796875 0.015625 0  0.6875 0.015625 0  0.6953125 0.015625 0  0.703125 0.015625 0  0.7109375 0.015625 0  0.71875 0.015625 0  0.7265625 0.015625 0  0.734375 0.015625 0  0.7421875 0.015625 0  0.75 0.015625 0  0.7578125 0.015625 0  0.765625 0.015625 0  0.7734375 0.015625 0  0.78125 0.015625 0  0.7890625 0.015625 0  0.796875 0.015625 0  0.8046875 0.015625 0  0.8125 0.015625 0  0.8203125 0.015625 0  0.828125 0.015625 0  0.8359375 0.015625 0  0.84375 0.015625 0  0.8515625 0.015625 0  0.859375 0.015625 0  0.8671875 0.015625 0  0.875 0.015625 0  0.8828125 0.015625 0  0.890625 0.015625 0  0.8984375 0.015625 0  0.90625 0.015625 0  0.9140625 0.015625 0  0.921875 0.015625 0  0.9296875 0.015625 0  0.9375 0.015625 0  0.9453125 0.015625 0  0.953125 0.015625 0  0.9609375 0.015625 0  0.96875 0.015625 0  0.9765625 0.015625 0  0.984375 0.015625 0  0.9921875 0.015625 0  1 0.015625 0  0 0.0234375 0  0.0078125 0.0234375 0  0.015625 0.0234375 0  0.0234375 0.0234375 0  0.03125 0.0234375 0  0.0390625 0.0234375 0  0.046875 0.0234375 0  0.0546875 0.0234375 0  0.0625 0.0234375 0  0.0703125 0.0234375 0  0.078125 0.0234375 0  0.0859375 0.0234375 0  0.09375 0.0234375 0  0.1015625 0.0234375 0  0.109375 0.0234375 0  0.1171875 0.0234375 0  0.125 0.0234375 0  0.1328125 0.0234375 0  0.140625 0.0234375 0  0.1484375 0.0234375 0  0.15625 0.0234375 0  0.1640625 0.0234375 0  0.171875 0.0234375 0  0.1796875 0.0234375 0  0.1875 0.0234375 0  0.1953125 0.0234375 0  0.203125 0.0234375 0  0.2109375 0.0234375 0  0.21875 0.0234375 0  0.2265625 0.0234375 0  0.234375 0.0234375 0  0.2421875 0.0234375 0  0.25 0.0234375 0  0.2578125 0.0234375 0  0.265625 0.0234375 0  0.2734375 0.0234375 0  0.28125 0.0234375 0  0.2890625 0.0234375 0  0.296875 0.0234375 0  0.3046875 0.0234375 0  0.3125 0.0234375 0  0.3203125 0.0234375 0  0.328125 0.0234375 0  0.3359375 0.0234375 0  0.34375 0.0234375 0  0.3515625 0.0234375 0  0.359375 0.0234375 0  0.3671875 0.0234375 0  0.375 0.0234375 0  0.3828125 0.0234375 0  0.390625 0.0234375 0  0.3984375 0.0234375 0  0.40625 0.0234375 0  0.4140625 0.0234375 0  0.421875 0.0234375 0  0.4296875 0.0234375 0  0.4375 0.0234375 0  0.4453125 0.0234375 0  0.453125 0.0234375 0  0.4609375 0.0234375 0  0.46875 0.0234375 0  0.4765625 0.0234375 0  0.484375 0.0234375 0  0.4921875 0.0234375 0  0.5 0.0234375 0  0.5078125 0.0234375 0  0.515625 0.0234375 0  0.5234375 0.0234375 0  0.53125 0.0234375 0  0.5390625 0.0234375 0  0.546875 0.0234375 0  0.5546875 0.0234375 0  0.5625 0.0234375 0  0.5703125 0.0234375 0  0.578125 0.0234375 0  0.5859375 0.0234375 0  0.59375 0.0234375 0  0.6015625 0.0234375 0  0.609375 0.0234375 0  0.6171875 0.0234375 0  0.625 0.0234375 0  0.6328125 0.0234375 0  0.640625 0.0234375 0  0.6484375 0.0234375 0  0.65625 0.0234375 0  0.6640625 0.0234375 0  0.671875 0.0234375 0  0.6796875 0.0234375 0  0.6875 0.0234375 0  0.6953125 0.0234375 0  0.703125 0.0234375 0  0.7109375 0.0234375 0  0.71875 0.0234375 0  0.7265625 0.0234375 0  0.734375 0.0234375 0  0.7421875 0.0234375 0  0.75 0.0234375 0  0.7578125 0.0234375 0  0.765625 0.0234375 0  0.7734375 0.0234375 0  0.78125 0.0234375 0  0.7890625 0.0234375 0  0.796875 0.0234375 0  0.8046875 0.0234375 0  0.8125 0.0234375 0  0.8203125 0.0234375 0  0.828125 0.0234375 0  0.8359375 0.0234375 0  0.84375 0.0234375 0  0.8515625 0.0234375 0  0.859375 0.0234375 0  0.8671
[...]
<PointData  Vectors="f_31739-0"> 
<DataArray  type="Float64"  Name="f_31739-0"  NumberOfComponents="3" format="ascii">0.0000000000000000e+00 0.0000000000000000e+00 0.0000000000000000e+00  0.0000000000000000e+00 9.6372931349212194e-05 0.0000000000000000e+00  0.0000000000000000e+00 1.9268781124819561e-04 0.0000000000000000e+00  0.0000000000000000e+00 2.8888662321474448e-04 0.0000000000000000e+00  0.0000000000000000e+00 3.8491142068163540e-04 0.0000000000000000e+00  0.0000000000000000e+00 4.8070436190147275e-04 0.0000000000000000e+00  0.0000000000000000e+00 5.7620774478839461e-04 0.0000000000000000e+00  0.0000000000000000e+00 6.7136404167565103e-04 0.0000000000000000e+00  0.0000000000000000e+00 7.6611593396812055e-04 0.0000000000000000e+00  0.0000000000000000e+00 8.6040634666888780e-04 0.0000000000000000e+00  0.0000000000000000e+00 9.5417848275908702e-04 0.0000000000000000e+00  0.0000000000000000e+00 1.0473758574103037e-03 0.0000000000000000e+00  0.0000000000000000e+00 1.1399423320089224e-03 0.0000000000000000e+00  0.0000000000000000e+00 1.2318221479719286e-03 0.0000000000000000e+00  0.0000000000000000e+00 1.3229599603337926e-03 0.0000000000000000e+00  0.0000000000000000e+00 1.4133008710842110e-03 0.0000000000000000e+00  0.0000000000000000e+00 1.5027904622366120e-03 0.0000000000000000e+00  0.0000000000000000e+00 1.5913748286075162e-03 0.0000000000000000e+00  0.0000000000000000e+00 1.6790006102870047e-03 0.0000000000000000e+00  0.0000000000000000e+00 1.7656150247807329e-03 0.0000000000000000e+00  0.0000000000000000e+00 1.8511658988041317e-03 0.0000000000000000e+00  0.0000000000000000e+00 1.9356016997096419e-03 0.0000000000000000e+00  0.0000000000000000e+00 2.0188715665280564e-03 0.0000000000000000e+00  0.0000000000000000e+00 2.1009253406052645e-03 0.0000000000000000e+00  0.0000000000000000e+00 2.1817135958159509e-03 0.0000000000000000e+00  0.0000000000000000e+00 2.2611876683360436e-03 0.0000000000000000e+00  0.0000000000000000e+00 2.3392996859559830e-03 0.0000000000000000e+00  0.0000000000000000e+00 2.4160025969171516e-03 0.0000000000000000e+00  0.0000000000000000e+00 2.4912501982540941e-03 0.0000000000000000e+00  0.0000000000000000e+00 2.5649971636254529e-03 0.0000000000000000e+00  0.0000000000000000e+00 2.6371990706168650e-03 0.0000000000000000e+00  0.0000000000000000e+00 2.7078124274993627e-03 0.0000000000000000e+00  0.0000000000000000e+00 2.7767946994271629e-03 0.0000000000000000e+00  0.0000000000000000e+00 2.8441043340590700e-03 0.0000000000000000e+00  0.0000000000000000e+00 2.9097007865880506e-03 0.0000000000000000e+00  0.0000000000000000e+00 2.9735445441639104e-03 0.0000000000000000e+00  0.0000000000000000e+00 3.0355971496943590e-03 0.0000000000000000e+00  0.0000000000000000e+00 3.0958212250101194e-03 0.0000000000000000e+00  0.0000000000000000e+00 3.1541804933801453e-03 0.0000000000000000e+00  0.0000000000000000e+00 3.2106398013633649e-03 0.0000000000000000e+00  0.0000000000000000e+00 3.2651651399837976e-03 0.0000000000000000e+00  0.0000000000000000e+00 3.3177236652162929e-03 0.0000000000000000e+00  0.0000000000000000e+00 3.3682837177705402e-03 0.0000000000000000e+00  0.0000000000000000e+00 3.4168148421614424e-03 0.0000000000000000e+00  0.0000000000000000e+00 3.4632878050543632e-03 0.0000000000000000e+00  0.0000000000000000e+00 3.5076746128741916e-03 0.0000000000000000e+00  0.0000000000000000e+00 3.5499485286676260e-03 0.0000000000000000e+00  0.0000000000000000e+00 3.5900840882085168e-03 0.0000000000000000e+00  0.0000000000000000e+00 3.6280571153365616e-03 0.0000000000000000e+00  0.0000000000000000e+00 3.6638447365201199e-03 0.0000000000000000e+00  0.0000000000000000e+00 3.6974253946343784e-03 0.0000000000000000e+00  0.0000000000000000e+00 3.7287788619465496e-03 0.0000000000000000e+00  0.0000000000000000e+00 3.7578862523003063e-03 0.0000000000000000e+00  0.0000000000000000e+00 3.7847300324920941e-03 0.0000000000000000e+00  0.0000000000000000e+00 3.8092940328324811e-03 0.0000000000000000e+00  0.0000000000000000e+00 3.8315634568861679e-03 0.0000000000000000e+00  0.0000000000000000e+00 3.8515248903848113e-03 0.0000000000000000e+00  0.0000000000000000e+00 3.8691663093072797e-03 0.0000000000000000e+00  0.0000000000000000e+00 3.8844770871224680e-03 0.0000000000000000e+00  0.0000000000000000e+00 3.8974480011903269e-03 0.0000000000000000e+00  0.0000000000000000e+00 3.9080712383172365e-03 0.0000000000000000e+00  0.0000000000000000e+00 3.9163403994623806e-03 0.0000000000000000e+00  0.0000000000000000e+00 3.9222505035922881e-03 0.0000000000000000e+00  0.0000000000000000e+00 3.9257979906812245e-03 0.0000000000000000e+00  0.0000000000000000e+00 3.9269807238556161e-03 0.0000000000000000e+00  -0.0000000000000000e+00 3.9257979906812245e-03 0.0000000000000000e+00  -0.0000000000000000e+00 3.9222505035922881e-03 0.0000000000000000e+00  -0.0000000000000000e+00 3.9163403994623806e-03 0.0000000000000000e+00  -0.0000000000000000e+00 3.9080712383172374e-03 0.0000000000000000e+00  -0.0000000000000000e+00 3.8974480011903269e-03 0.0000000000000000e+00  -0.0000000000000000e+00 3.8844770871224680e-03 0.0000000000000000e+00  -0.0000000000000000e+00 3.8691663093072797e-03 0.0000000000000000e+00  -0.0000000000000000e+00 3.8515248903848113e-03 0.0000000000000000e+00  -0.0000000000000000e+00 3.8315634568861679e-03 0.0000000000000000e+00  -0.0000000000000000e+00 3.8092940328324811e-03 0.0000000000000000e+00  -0.0000000000000000e+00 3.7847300324920941e-03 0.0000000000000000e+00  -0.0000000000000000e+00 3.7578862523003063e-03 0.0000000000000000e+00  -0.0000000000000000e+00 3.7287788619465496e-03 0.0000000000000000e+00  -0.0000000000000000e+00 3.6974253946343784e-03 0.0000000000000000e+00  -0.0000000000000000e+00 3.6638447365201199e-03 0.0000000000000000e+00  -0.0000000000000000e+00 3.6280571153365616e-03 0.0000000000000000e+00  -0.0000000000000000e+00 3.5900840882085168e-03 0.0000000000000000e+00  -0.0000000000000000e+00 3.5499485286676269e-03 0.0000000000000000e+00  -0.0000000000000000e+00 3.5076746128741916e-03 0.0000000000000000e+00  -0.0000000000000000e+00 3.4632878050543637e-03 0.0000000000000000e+00  -0.0000000000000000e+00 3.4168148421614428e-03 0.0000000000000000e+00  -0.0000000000000000e+00 3.3682837177705402e-03 0.0000000000000000e+00  -0.0000000000000000e+00 3.3177236652162934e-03 0.0000000000000000e+00  -0.0000000000000000e+00 3.2651651399837984e-03 0.0000000000000000e+00  -0.0000000000000000e+00 3.2106398013633649e-03 0.0000000000000000e+00  -0.0000000000000000e+00 3.1541804933801457e-03 0.0000000000000000e+00  -0.0000000000000000e+00 3.0958212250101198e-03 0.0000000000000000e+00  -0.0000000000000000e+00 3.0355971496943590e-03 0.0000000000000000e+00  -0.0000000000000000e+00 2.9735445441639113e-03 0.0000000000000000e+00  -0.0000000000000000e+00 2.9097007865880502e-03 0.0000000000000000e+00  -0.0000000000000000e+00 2.8441043340590700e-03 0.0000000000000000e+00  -0.0000000000000000e+00 2.7767946994271633e-03 0.0000000000000000e+00  -0.0000000000000000e+00 2.7078124274993636e-03 0.0000000000000000e+00  -0.0000000000000000e+00 2.6371990706168659e-03 0.0000000000000000e+00  -0.0000000000000000e+00 2.5649971636254524e-03 0.0000000000000000e+00  -0.0000000000000000e+00 2.4912501982540941e-03 0.0000000000000000e+00  -0.0000000000000000e+00 2.4160025969171524e-03 0.0000000000000000e+00  -0.0000000000000000e+00 2.3392996859559834e-03 0.0000000000000000e+00  -0.0000000000000000e+00 2.2611876683360441e-03 0.0000000000000000e+00  -0.0000000000000000e+00 2.1817135958159509e-03 0.0000000000000000e+00  -0.0000000000000000e+00 2.1009253406052645e-03 0.0000000000000000e+00  -0.0000000000000000e+00 2.0188715665280569e-03 0.0000000000000000e+00  -0.0000000000000000e+00 1.9356016997096423e-03 0.0000000000000000e+00  -0.0000000000000000e+00 1.8511658988041326e-03 0.0000000000000000e+00  -0.0000000000000000e+00 1.7656150247807342e-03 0.0000000000000000e+00  -0.0000000000000000e+00 1.6790006102870045e-03 0.0000000000000000e+00  -0.0000000000000000e+00 1.5913748286075164e-03 0.0000000000000000e+00  -0.0000000000000000e+00 1.5027904622366122e-03 0.0000000000000000e+00  -0.0000000000000000e+00 1.4133008710842119e-03 0.0000000000000000e+00  -0.0000000000000000e+00 1.3229599603337937e-03 0.0000000000000000e+00  -0.0000000000000000e+00 1.2318221479719279e-03 0.0000000000000000e+00  -0.0000000000000000e+00 1.1399423320089226e-03 0.0000000000000000e+00  -0.0000000000000000e+00 1.0473758574103041e-03 0.0000000000000000e+00  -0.0000000000000000e+00 9.5417848275908778e-04 0.0000000000000000e+00  -0.0000000000000000e+00 8.6040634666888877e-04 0.0000000000000000e+00  -0.0000000000000000e+00 7.6611593396812196e-04 0.0000000000000000e+00  -0.0000000000000000e+00 6.7136404167565103e-04 0.0000000000000000e+00  -0.0000000000000000e+00 5.7620774478839472e-04 0.0000000000000000e+00  -0.0000000000000000e+00 4.8070436190147335e-04 0.0000000000000000e+00  -0.0000000000000000e+00 3.8491142068163627e-04 0.0000000000000000e+00  -0.0000000000000000e+00 2.8888662321474568e-04 0.0000000000000000e+00  -0.0000000000000000e+00 1.9268781124819542e-04 0.0000000000000000e+00  -0.0000000000000000e+00 9.6372931349212343e-05 0.0000000000000000e+00  -0.0000000000000000e+00 4.8091643737831363e-19 0.0000000000000000e+00  9.6372931349212194e-05 0.0000000000000000e+00 0.0000000000000000e+00  9.6046666907109677e-05 9.6046666907109976e-05 0.0000000000000000e+00  9.5780222858368825e-05 1.9218987585085408e-04 0.0000000000000000e+00  9.5514527360812253e-05 2.8826589901889422e-04 0.0000000000000000e+00  9.5219858326362823e-05 3.8418937090663565e-04 0.0000000000000000e+00  9.4885135539237410e-05 4.7989317039759844e-04 0.0000000000000000e+00  9.4505132841338519e-05 5.7531541877745549e-04 0.0000000000000000e+00  9.4077042950763877e-05 6.7039634604587129e-04 0.0000000000000000e+00  9.3599254101178734e-05 7.6507727902100852e-04 0.0000000000000000e+00  9.3070819519849065e-05 8.5930025786316823e-04 0.0000000000000000e+00  9.2491197348569635e-05 9.5300787538086336e-04 0.0000000000000000e+00  9.1860111262528370e-05 1.0461432091742825e-03 0.0000000000000000e+00  9.1177470319830348e-05 1.1386497975883194e-03 0.0000000000000000e+00  9.0443320161455752e-05 1.2304716383056426e-03 0.0000000000000000e+00  8.9657811866328247e-05 1.3215531994560028e-03 0.0000000000000000e+00  8.8821181272238277e-05 1.4118394380021534e-03 0.0000000000000000e+00  8.7933734772545474e-05 1.5012758225124690e-03 0.0000000000000000e+00  8.6995839267297833e-05 1.5898083586393574e-03 0.0000000000000000e+00  8.6007914862812777e-05 1.6773836162802874e-03 0.0000000000000000e+00  8.4970429438077934e-05 1.7639487577729798e-03 0.0000000000000000e+00  8.3883894508158906e-05 1.8494515666987283e-03 0.0000000000000000e+00  8.2748862006393431e-05 1.9338404770041762e-03 0.0000000000000000e+00  8.1565921728416813e-05 2.0170646022383883e-03 0.0000000000000000e+00  8.0335699259697193e-05 2.0990737647582566e-03 0.0000000000000000e+00  7.9058854260590598e-05 2.1798185247926594e-03 0.0000000000000000e+00  7.7736079018315223e-05 2.2592502092815036e-03 0.0000000000000000e+00  7.6368097199789448e-05 2.3373209404233650e-03 0.0000000000000000e+00  7.4955662756431946e-05 2.4139836638781822e-03 0.0000000000000000e+00  7.3499558944414836e-05 2.4891921765805604e-03 0.0000000000000000e+00  7.2000597432632759e-05 2.5629011541258820e-03 0.0000000000000000e+00  7.0459617477303498e-05 2.6350661776965247e-03 0.0000000000000000e+00  6.8877485146878411e-05 2.7056437604992597e-03 0.0000000000000000e+00  6.7255092584636266e-05 2.7745913736879416e-03 0.0000000000000000e+00  6.5593357299083366e-05 2.8418674717478874e-03 0.0000000000000000e+00  6.3893221474350991e-05 2.9074315173202832e-03 0.0000000000000000e+00  6.2155651294584525e-05 2.9712440054465356e-03 0.0000000000000000e+00  6.0381636277328348e-05 3.0332664872136927e-03 0.0000000000000000e+00  5.8572188612168995e-05 3.0934615927833272e-03 0.0000000000000000e+00  5.6728342501562657e-05 3.1517930537871405e-03 0.0000000000000000e+00  5.4851153501414813e-05 3.2082257250733775e-03 0.0000000000000000e+00  5.2941697859551044e-05 3.2627256057891157e-03 0.0000000000000000e+00  5.1001071850531758e-05 3.3152598597839251e-03 0.0000000000000000e+00  4.9030391105714909e-05 3.3657968353213688e-03 0.0000000000000000e+00  4.7030789937613065e-05 3.4143060840851626e-03 0.0000000000000000e+00  4.5003420657947267e-05 3.4607583794676188e-03 0.0000000000000000e+00  4.2949452888887042e-05 3.5051257341284941e-03 0.0000000000000000e+00  4.0870072867155845e-05 3.5473814168128972e-03 0.0000000000000000e+00  3.8766482740806186e-05 3.5874999684175489e-03 0.0000000000000000e+00  3.6639899858604276e-05 3.6254572172951193e-03 0.0000000000000000e+00  3.4491556051976564e-05 3.6612302937870131e-03 0.0000000000000000e+00  3.2322696909637217e-05 3.6947976439753814e-03 0.0000000000000000e+00  3.0134581045011493e-05 3.7261390426457782e-03 0.0000000000000000e+00  2.7928479356669915e-05 3.7552356054523263e-03 0.0000000000000000e+00  2.5705674281988021e-05 3.7820698002777832e-03 0.0000000000000000e+00  2.3467459044342977e-05 3.8066254577815120e-03 0.0000000000000000e+00  2.1215136894116139e-05 3.8288877811286336e-03 0.0000000000000000e+00  1.8950020343892864e-05 3.8488433548945580e-03 0.0000000000000000e+00  1.6673430398177369e-05 3.8664801531391956e-03 0.0000000000000000e+00  1.4386695778040713e-05 3.8817875466459774e-03 0.0000000000000000e+00  1.2091152141065444e-05 3.8947563093210736e-03 0.0000000000000000e+00  9.7881412970573642e-06 3.9053786237490734e-03 0.0000000000000000e+00  7.4790104198900314e-06 3.9136480859014869e-03 0.0000000000000000e+00  5.1651112559637157e-06 3.9195597089953464e-03 0.0000000000000000e+00  2.8477993296989026e-06 3.9231099264993956e-03 0.0000000000000000e+00  5.2843314652652442e-07 3.9242965942861115e-03 0.0000000000000000e+00  -1.7916266061818206e-06 3.9231189919282520e-03 0.0000000000000000e+00  -4.1110178597593004e-06 3.9195778231390435e-03 0.0000000000000000e+00  -6.4283779660887047e-06 3.9136752153557412e-03 0.0000000000000000e+00  -8.7423445000437825e-06 3.9054147184670335e-03 0.0000000000000000e+00  -1.1051556062229749e-05 3.8948013026847850e-03 0.0000000000000000e+00  -1.3354653081466678e-05 3.8818413555616192e-03 0.0000000000000000e+00  -1.5650278616607790e-05 3.8665426781561178e-03 0.0000000000000000e+00  -1.7937079157241821e-05 3.8489144803480289e-03 0.0000000000000000e+00  -2.0213705422858173e-05 3.8289673753063385e-03 0.0000000000000000e+00  -2.2478813160035787e-05 3.8067133731136335e-03 0.0000000000000000e+00  -2.4731063937247184e-05 3.7821658735508043e-03 0.0000000000000000e+00  -2.6969125936898756e-05 3.7553396580462719e-03 0.0000000000000000e+00  -2.9191674744200528e-05 3.7262508807950354e-03 0.0000000000000000e+00  -3.1397394132512140e-05 3.6949170590528631e-03 0.0000000000000000e+00  -3.3584976844839083e-05 3.6613570626116525e-03 0.0000000000000000e+00  -3.5753125371137593e-05 3.6255911024625919e-03 0.0000000000000000e+00  -3.7900552721163407e-05 3.5876407186540703e-03 0.0000000000000000e+00  -4.0025983192638961e-05 3.5475287673519991e-03 0.0000000000000000e+00  -4.2128153134444192e-05 3.5052794071106352e-03 0.0000000000000000e+00  -4.4205811704786625e-05 3.4609180843624071e-03 0.0000000000000000e+00  -4.6257721624171545e-05 3.4144715181360463e-03 0.0000000000000000e+00  -4.8282659923145402e-05 3.3659676840125880e-03 0.0000000000000000e+00  -5.0279418684882741e-05 3.3154357973294280e-03 0.0000000000000000e+00  -5.2246805782721974e-05 3.2629062956432021e-03 0.0000000000000000e+00  -5.4183645612916101e-05 3.2084108204627291e-03 0.0000000000000000e+00  -5.6088779822970991e-05 3.1519821982638487e-03 0.0000000000000000e+00  -5.7961068036114092e-05 3.0936544207985700e-03 0.0000000000000000e+00  -5.9799388572639147e-05 3.0334626247114729e-03 0.0000000000000000e+00  -6.1602639169094765e-05 2.9714430704770025e-03 0.0000000000000000e+00  -6.3369737696578854e-05 2.9076331206719271e-03 0.0000000000000000e+00  -6.5099622879783377e-05 2.8420712175978662e-03 0.0000000000000000e+00  -6.6791255018835210e-05 2.7747968602696393e-03 0.0000000000000000e+00  -6.8443616716580007e-05 2.7058505807859806e-03 0.0000000000000000e+00  -7.0055713614611067e-05 2.6352739201001107e-03 0.0000000000000000e+00  -7.1626575142266110e-05 2.5631094032086128e-03 0.0000000000000000e+00  -7.3155255283881382e-05 2.4894005137786265e-03 0.0000000000000000e+00  -7.4640833371116409e-05 2.4141916682343728e-03 0.0000000000000000e+00  -7.6082414908942701e-05 2.3375281893262038e-03 0.0000000000000000e+00  -7.7479132446402378e-05 2.2594562792074132e-03 0.0000000000000000e+00  -7.8830146506410549e-05 2.1800229920467414e-03 0.0000000000000000e+00  -8.0134646593241909e-05 2.0992762062082399e-03 0.0000000000000000e+00  -8.1391852302052794e-05 2.0172645960346131e-03 0.0000000000000000e+00  -8.2601014562808659e-05 1.9340376032763831e-03 0.0000000000000000e+00  -8.3761417061816750e-05 1.8496454082176381e-03 0.0000000000000000e+00  -8.4872377899518491e-05 1.7641389005604408e-03 0.0000000000000000e+00  -8.5933251564965316e-05 1.6775696501462210e-03 0.0000000000000000e+00  -8.6943431339075132e-05 1.5899898776155818e-03 0.0000000000000000e+00  -8.7902352285486643e-05 1.5014524251415861e-03 0.0000000000000000e+00  -8.8809495058108382e-05 1.4120107274222255e-03 0.0000000000000000e+00  -8.9664390862878278e-05 1.3217187831949316e-03 0.0000000000000000e+00  -9.0466628082601022e-05 1.2306311276576742e-03 0.0000000000000000e+00  -9.1215861352694438e-05 1.1388028063785104e-03 0.0000000000000000e+00  -9.1911824345030830e-05 1.0462893516064240e-03 0.0000000000000000e+00  -9.2554348337275943e-05 9.5314676247422469e-04 0.0000000000000000e+00  -9.3143390143233067e-05 8.5943149164025478e-04 0.0000000000000000e+00  -9.3679075861038489e-05 7.6520044295380911e-04 0.0000000000000000e+00  -9.4161772785768925e-05 6.7051098893589360e-04 0.0000000000000000e+00  -9.4592214762607741e-05 5.7542102631814201e-04 0.0000000000000000e+00  -9.4971737052042442e-05 4.7998911157548496e-04 0.0000000000000000e+00  -9.5302756965839731e-05 3.8427478671618459e-04 0.0000000000000000e+00  -9.5589866782925785e-05 2.8833943882196811e-04 0.0000000000000000e+00  -9.5842657567060476e-05 1.9224899412114947e-04 0.0000000000000000e+00  -9.6084181491117013e-05 9.6084601305740020e-05 0.0000000000000000e+00  -9.6372931349212194e-05 4.8077159433868719e-19 0.0000000000000000e+00  1.9268781124819563e-04 0.0000000000000000e+00 0.0000000000000000e+00  1.9218987585085365e-04 9.5780222858369597e-05 0.0000000000000000e+00  1.9168122134167364e-04 1.9168122134167513e-04 0.0000000000000000e+00  1.9113806664335342e-04 2.8755768015793580e-04 0.0000000000000000e+00  1.9053385083486109e-04 3.8330878881624795e-04 0.0000000000000000e+00  1.8985131388249771e-04 4.7885696320243236e-04 0.0000000000000000e+00  1.8908040525715864e-04 5.7413460146852040e-04 0.0000000000000000e+00  1.8821519639898745e-04 6.6907871424341271e-04 0.0000000000000000e+00  1.8725208815931047e-04 7.6362870237658542e-04 0.0000000000000000e+00  1.8618887160024128e-04 8.5772538401339936e-04 0.0000000000000000e+00  1.8502421807010909e-04 9.5131053864888182e-04 0.0000000000000000e+00  1.8375738803047830e-04 1.0443266824470018e-03 0.0000000000000000e+00  1.8238805669033636e-04 1.1367169556324159e-03 0.0000000000000000e+00  1.8091620503401490e-04 1.2284250682391877e-03 0.0000000000000000e+00  1.7934204909227994e-04 1.3193952781511847e-03 0.0000000000000000e+00  1.7766599247436327e-04 1.4095723879319873e-03 0.0000000000000000e+00  1.7588859355028647e-04 1.4989017530437601e-03 0.0000000000000000e+00  1.7401054214851767e-04 1.5873292971960314e-03 0.0000000000000000e+00  1.7203264260335794e-04 1.6748015322665989e-03 0.0000000000000000e+00  1.6995580114153043e-04 1.7612655811996764e-03 0.0000000000000000e+00  1.6778101629659538e-04 1.8466692028528148e-03 0.0000000000000000e+00  1.6550937147510894e-04 1.9309608181087173e-03 0.0000000000000000e+00  1.6314202907653531e-04 2.0140895367842587e-03 0.0000000000000000e+00  1.6068022575068503e-04 2.0960051850082450e-03 0.0000000000000000e+00  1.581252684979