<?xml version="1.0"?>
<VTKFile type="UnstructuredGrid"  version="0.1"  >
<UnstructuredGrid>
<Piece  NumberOfPoints="16641" NumberOfCells="32768">
<Points>
<DataArray  type="Float64"  NumberOfComponents="3"  format="ascii">0 0 0  0.0078125 0 0  0.015625 0 0  0.0234375 0 0  0.03125 0 0  0.0390625 0 0  0.046875 0 0  0.0546875 0 0  0.0625 0 0  0.0703125 0 0  0.078125 0 0  0.0859375 0 0  0.09375 0 0  0.1015625 0 0  0.109375 0 0  0.1171875 0 0  0.125 0 0  0.1328125 0 0  0.140625 0 0  0.1484375 0 0  0.15625 0 0  0.1640625 0 0  0.171875 0 0  0.1796875 0 0  0.1875 0 0  0.1953125 0 0  0.203125 0 0  0.2109375 0 0  0.21875 0 0  0.2265625 0 0  0.234375 0 0  0.2421875 0 0  0.25 0 0  0.2578125 0 0  0.265625 0 0  0.2734375 0 0  0.28125 0 0  0.2890625 0 0  0.296875 0 0  0.3046875 0 0  0.3125 0 0  0.3203125 0 0  0.328125 0 0  0.3359375 0 0  0.34375 0 0  0.3515625 0 0  0.359375 0 0  0.3671875 0 0  0.375 0 0  0.3828125 0 0  0.390625 0 0  0.3984375 0 0  0.40625 0 0  0.4140625 0 0  0.421875 0 0  0.4296875 0 0  0.4375 0 0  0.4453125 0 0  0.453125 0 0  0.4609375 0 0  0.46875 0 0  0.4765625 0 0  0.484375 0 0  0.4921875 0 0  0.5 0 0  0.5078125 0 0  0.515625 0 0  0.5234375 0 0  0.53125 0 0  0.5390625 0 0  0.546875 0 0  0.5546875 0 0  0.5625 0 0  0.5703125 0 0  0.578125 0 0  0.5859375 0 0  0.59375 0 0  0.6015625 0 0  0.609375 0 0  0.6171875 0 0  0.625 0 0  0.6328125 0 0  0.640625 0 0  0.6484375 0 0  0.65625 0 0  0.6640625 0 0  0.671875 0 0  0.6796875 0 0  0.6875 0 0  0.6953125 0 0  0.703125 0 0  0.7109375 0 0  0.71875 0 0  0.7265625 0 0  0.734375 0 0  0.7421875 0 0  0.75 0 0  0.7578125 0 0  0.765625 0 0  0.7734375 0 0  0.78125 0 0  0.7890625 0 0  0.796875 0 0  0.8046875 0 0  0.8125 0 0  0.8203125 0 0  0.828125 0 0  0.8359375 0 0  0.84375 0 0  0.8515625 0 0  0.859375 0 0  0.8671875 0 0  0.875 0 0  0.8828125 0 0  0.890625 0 0  0.8984375 0 0  0.90625 0 0  0.9140625 0 0  0.921875 0 0  0.9296875 0 0  0.9375 0 0  0.9453125 0 0  0.953125 0 0  0.9609375 0 0  0.96875 0 0  0.9765625 0 0  0.984375 0 0  0.9921875 0 0  1 0 0  0 0.0078125 0  0.0078125 0.0078125 0  0.015625 0.0078125 0  0.0234375 0.0078125 0  0.03125 0.0078125 0  0.0390625 0.0078125 0  0.046875 0.0078125 0  0.0546875 0.0078125 0  0.0625 0.0078125 0  0.0703125 0.0078125 0  0.078125 0.0078125 0  0.0859375 0.0078125 0  0.09375 0.0078125 0  0.1015625 0.0078125 0  0.109375 0.0078125 0  0.1171875 0.0078125 0  0.125 0.0078125 0  0.1328125 0.0078125 0  0.140625 0.0078125 0  0.1484375 0.0078125 0  0.15625 0.0078125 0  0.1640625 0.0078125 0  0.171875 0.0078125 0  0.1796875 0.0078125 0  0.1875 0.0078125 0  0.1953125 0.0078125 0  0.203125 0.0078125 0  0.2109375 0.0078125 0  0.21875 0.0078125 0  0.2265625 0.0078125 0  0.234375 0.0078125 0  0.2421875 0.0078125 0  0.25 0.0078125 0  0.2578125 0.0078125 0  0.265625 0.0078125 0  0.2734375 0.0078125 0  0.28125 0.0078125 0  0.2890625 0.0078125 0  0.296875 0.0078125 0  0.3046875 0.0078125 0  0.3125 0.0078125 0  0.3203125 0.0078125 0  0.328125 0.0078125 0  0.3359375 0.0078125 0  0.34375 0.0078125 0  0.3515625 0.0078125 0  0.359375 0.0078125 0  0.3671875 0.0078125 0  0.375 0.0078125 0  0.3828125 0.0078125 0  0.390625 0.0078125 0  0.3984375 0.0078125 0  0.40625 0.0078125 0  0.4140625 0.0078125 0  0.421875 0.0078125 0  0.4296875 0.0078125 0  0.4375 0.0078125 0  0.4453125 0.0078125 0  0.453125 0.0078125 0  0.4609375 0.0078125 0  0.46875 0.0078125 0  0.4765625 0.0078125 0  0.484375 0.0078125 0  0.4921875 0.0078125 0  0.5 0.0078125 0  0.5078125 0.0078125 0  0.515625 0.0078125 0  0.5234375 0.0078125 0  0.53125 0.0078125 0  0.5390625 0.0078125 0  0.546875 0.0078125 0  0.5546875 0.0078125 0  0.5625 0.0078125 0  0.5703125 0.0078125 0  0.578125 0.0078125 0  0.5859375 0.0078125 0  0.59375 0.0078125 0  0.6015625 0.0078125 0  0.609375 0.0078125 0  0.6171875 0.0078125 0  0.625 0.0078125 0  0.6328125 0.0078125 0  0.640625 0.0078125 0  0.6484375 0.0078125 0  0.65625 0.0078125 0  0.6640625 0.0078125 0  0.671875 0.0078125 0  0.6796875 0.0078125 0  0.6875 0.0078125 0  0.6953125 0.0078125 0  0.703125 0.0078125 0  0.7109375 0.0078125 0  0.71875 0.0078125 0  0.7265625 0.0078125 0  0.734375 0.0078125 0  0.7421875 0.0078125 0  0.75 0.0078125 0  0.7578125 0.0078125 0  0.765625 0.0078125 0  0.7734375 0.0078125 0  0.78125 0.0078125 0  0.7890625 0.0078125 0  0.796875 0.0078125 0  0.8046875 0.0078125 0  0.8125 0.0078125 0  0.8203125 0.0078125 0  0.828125 0.0078125 0  0.8359375 0.0078125 0  0.84375 0.0078125 0  0.8515625 0.0078125 0  0.859375 0.0078125 0  0.8671875 0.0078125 0  0.875 0.0078125 0  0.8828125 0.0078125 0  0.890625 0.0078125 0  0.8984375 0.0078125 0  0.90625 0.0078125 0  0.9140625 0.0078125 0  0.921875 0.0078125 0  0.9296875 0.0078125 0  0.9375 0.0078125 0  0.9453125 0.0078125 0  0.953125 0.0078125 0  0.9609375 0.0078125 0  0.96875 0.0078125 0  0.9765625 0.0078125 0  0.984375 0.0078125 0  0.9921875 0.0078125 0  1 0.0078125 0  0 0.015625 0  0.0078125 0.015625 0  0.015625 0.015625 0  0.0234375 0.015625 0  0.03125 0.015625 0  0.0390625 0.015625 0  0.046875 0.015625 0  0.0546875 0.015625 0  0.0625 0.015625 0  0.0703125 0.015625 0  0.078125 0.015625 0  0.0859375 0.015625 0  0.09375 0.015625 0  0.1015625 0.015625 0  0.109375 0.015625 0  0.1171875 0.015625 0  0.125 0.015625 0  0.1328125 0.015625 0  0.140625 0.015625 0  0.1484375 0.015625 0  0.15625 0.015625 0  0.1640625 0.015625 0  0.171875 0.015625 0  0.1796875 0.015625 0  0.1875 0.015625 0  0.1953125 0.015625 0  0.203125 0.015625 0  0.2109375 0.015625 0  0.21875 0.015625 0  0.2265625 0.015625 0  0.234375 0.015625 0  0.2421875 0.015625 0  0.25 0.015625 0  0.2578125 0.015625 0  0.265625 0.015625 0  0.2734375 0.015625 0  0.28125 0.015625 0  0.2890625 0.015625 0  0.296875 0.015625 0  0.3046875 0.015625 0  0.3125 0.015625 0  0.3203125 0.015625 0  0.328125 0.015625 0  0.3359375 0.015625 0  0.34375 0.015625 0  0.3515625 0.015625 0  0.359375 0.015625 0  0.3671875 0.015625 0  0.375 0.015625 0  0.3828125 0.015625 0  0.390625 0.015625 0  0.3984375 0.015625 0  0.40625 0.015625 0  0.4140625 0.015625 0  0.421875 0.015625 0  0.4296875 0.015625 0  0.4375 0.015625 0  0.4453125 0.015625 0  0.453125 0.015625 0  0.4609375 0.015625 0  0.46875 0.015625 0  0.4765625 0.015625 0  0.484375 0.015625 0  0.4921875 0.015625 0  0.5 0.015625 0  0.5078125 0.015625 0  0.515625 0.015625 0  0.5234375 0.015625 0  0.53125 0.015625 0  0.5390625 0.015625 0  0.546875 0.015625 0  0.5546875 0.015625 0  0.5625 0.015625 0  0.5703125 0.015625 0  0.578125 0.015625 0  0.5859375 0.015625 0  0.59375 0.015625 0  0.6015625 0.015625 0  0.609375 0.015625 0  0.6171875 0.015625 0  0.625 0.015625 0  0.6328125 0.015625 0  0.640625 0.015625 0  0.6484375 0.015625 0  0.65625 0.015625 0  0.6640625 0.015625 0  0.671875 0.015625 0  0.6796875 0.015625 0  0.6875 0.015625 0  0.6953125 0.015625 0  0.703125 0.015625 0  0.7109375 0.015625 0  0.71875 0.015625 0  0.7265625 0.015625 0  0.734375 0.015625 0  0.7421875 0.015625 0  0.75 0.015625 0  0.7578125 0.015625 0  0.765625 0.015625 0  0.7734375 0.015625 0  0.78125 0.015625 0  0.7890625 0.015625 0  0.796875 0.015625 0  0.8046875 0.015625 0  0.8125 0.015625 0  0.8203125 0.015625 0  0.828125 0.015625 0  0.8359375 0.015625 0  0.84375 0.015625 0  0.8515625 0.015625 0  0.859375 0.015625 0  0.8671875 0.015625 0  0.875 0.015625 0  0.8828125 0.015625 0  0.890625 0.015625 0  0.8984375 0.015625 0  0.90625 0.015625 0  0.9140625 0.015625 0  0.921875 0.015625 0  0.9296875 0.015625 0  0.9375 0.015625 0  0.9453125 0.015625 0  0.953125 0.015625 0  0.9609375 0.015625 0  0.96875 0.015625 0  0.9765625 0.015625 0  0.984375 0.015625 0  0.9921875 0.015625 0  1 0.015625 0  0 0.0234375 0  0.0078125 0.0234375 0  0.015625 0.0234375 0  0.0234375 0.0234375 0  0.03125 0.0234375 0  0.0390625 0.0234375 0  0.046875 0.0234375 0  0.0546875 0.0234375 0  0.0625 0.0234375 0  0.0703125 0.0234375 0  0.078125 0.0234375 0  0.0859375 0.0234375 0  0.09375 0.0234375 0  0.1015625 0.0234375 0  0.109375 0.0234375 0  0.1171875 0.0234375 0  0.125 0.0234375 0  0.1328125 0.0234375 0  0.140625 0.0234375 0  0.1484375 0.0234375 0  0.15625 0.0234375 0  0.1640625 0.0234375 0  0.171875 0.0234375 0  0.1796875 0.0234375 0  0.1875 0.0234375 0  0.1953125 0.0234375 0  0.203125 0.0234375 0  0.2109375 0.0234375 0  0.21875 0.0234375 0  0.2265625 0.0234375 0  0.234375 0.0234375 0  0.2421875 0.0234375 0  0.25 0.0234375 0  0.2578125 0.0234375 0  0.265625 0.0234375 0  0.2734375 0.0234375 0  0.28125 0.0234375 0  0.2890625 0.0234375 0  0.296875 0.0234375 0  0.3046875 0.0234375 0  0.3125 0.0234375 0  0.3203125 0.0234375 0  0.328125 0.0234375 0  0.3359375 0.0234375 0  0.34375 0.0234375 0  0.3515625 0.0234375 0  0.359375 0.0234375 0  0.3671875 0.0234375 0  0.375 0.0234375 0  0.3828125 0.0234375 0  0.390625 0.0234375 0  0.3984375 0.0234375 0  0.40625 0.0234375 0  0.4140625 0.0234375 0  0.421875 0.0234375 0  0.4296875 0.0234375 0  0.4375 0.0234375 0  0.4453125 0.0234375 0  0.453125 0.0234375 0  0.4609375 0.0234375 0  0.46875 0.0234375 0  0.4765625 0.0234375 0  0.484375 0.0234375 0  0.4921875 0.0234375 0  0.5 0.0234375 0  0.5078125 0.0234375 0  0.515625 0.0234375 0  0.5234375 0.0234375 0  0.53125 0.0234375 0  0.5390625 0.0234375 0  0.546875 0.0234375 0  0.5546875 0.0234375 0  0.5625 0.0234375 0  0.5703125 0.0234375 0  0.578125 0.0234375 0  0.5859375 0.0234375 0  0.59375 0.0234375 0  0.6015625 0.0234375 0  0.609375 0.0234375 0  0.6171875 0.0234375 0  0.625 0.0234375 0  0.6328125 0.0234375 0  0.640625 0.0234375 0  0.6484375 0.0234375 0  0.65625 0.0234375 0  0.6640625 0.0234375 0  0.671875 0.0234375 0  0.6796875 0.0234375 0  0.6875 0.0234375 0  0.6953125 0.0234375 0  0.703125 0.0234375 0  0.7109375 0.0234375 0  0.71875 0.0234375 0  0.7265625 0.0234375 0  0.734375 0.0234375 0  0.7421875 0.0234375 0  0.75 0.0234375 0  0.7578125 0.0234375 0  0.765625 0.0234375 0  0.7734375 0.0234375 0  0.78125 0.0234375 0  0.7890625 0.0234375 0  0.796875 0.0234375 0  0.8046875 0.0234375 0  0.8125 0.0234375 0  0.8203125 0.0234375 0  0.828125 0.0234375 0  0.8359375 0.0234375 0  0.84375 0.0234375 0  0.8515625 0.0234375 0  0.859375 0.0234375 0  0.8671
[...]
<PointData  Scalars="f_31739-1"> 
<DataArray  type="Float64"  Name="f_31739-1"  format="ascii">-0.0000000000000000e+00  -1.9274437650860398e-04  -3.8537265101197565e-04  -5.7776879144038923e-04  -7.6981690555300583e-04  -9.6140131074702530e-04  -1.1524066037405614e-03  -1.3427177300872626e-03  -1.5322200534808087e-03  -1.7207994248075364e-03  -1.9083422509055948e-03  -2.0947355629892207e-03  -2.2798670846969093e-03  -2.4636252997224987e-03  -2.6458995189884175e-03  -2.8265799473206534e-03  -3.0055577495852561e-03  -3.1827251162465505e-03  -3.3579753283075760e-03  -3.5312028215936137e-03  -3.7023032503401025e-03  -3.8711735500466210e-03  -4.0377119995590937e-03  -4.2018182823428084e-03  -4.3633935469093452e-03  -4.5223404663610189e-03  -4.6785632970169572e-03  -4.8319679360855220e-03  -4.9824619783483083e-03  -5.1299547718215901e-03  -5.2743574723616909e-03  -5.4155830971813696e-03  -5.5535465772450021e-03  -5.6881648085109838e-03  -5.8193567019905008e-03  -5.9470432325924999e-03  -6.0711474867254566e-03  -6.1915947086272358e-03  -6.3083123453951751e-03  -6.4212300906892417e-03  -6.5302799270819346e-03  -6.6353961670294476e-03  -6.7365154924393864e-03  -6.8335769928112170e-03  -6.9265222019264808e-03  -7.0152951330666527e-03  -7.0998423127374448e-03  -7.1801128128792481e-03  -7.2560582815442828e-03  -7.3276329720220112e-03  -7.3947937703952383e-03  -7.4575002215103280e-03  -7.5157145533458749e-03  -7.5694016997651537e-03  -7.6185293216386538e-03  -7.6630678263239597e-03  -7.7029903854912499e-03  -7.7382729512836829e-03  -7.7688942708029254e-03  -7.7948358989111018e-03  -7.8160822093414645e-03  -7.8326204041110573e-03  -7.8444405212297567e-03  -7.8515354407009894e-03  -7.8539008888105638e-03  -7.8515354407009894e-03  -7.8444405212297567e-03  -7.8326204041110573e-03  -7.8160822093414663e-03  -7.7948358989111018e-03  -7.7688942708029254e-03  -7.7382729512836829e-03  -7.7029903854912499e-03  -7.6630678263239597e-03  -7.6185293216386538e-03  -7.5694016997651537e-03  -7.5157145533458749e-03  -7.4575002215103280e-03  -7.3947937703952383e-03  -7.3276329720220112e-03  -7.2560582815442828e-03  -7.1801128128792481e-03  -7.0998423127374456e-03  -7.0152951330666518e-03  -6.9265222019264817e-03  -6.8335769928112178e-03  -6.7365154924393864e-03  -6.6353961670294493e-03  -6.5302799270819363e-03  -6.4212300906892417e-03  -6.3083123453951759e-03  -6.1915947086272367e-03  -6.0711474867254575e-03  -5.9470432325925016e-03  -5.8193567019904999e-03  -5.6881648085109838e-03  -5.5535465772450030e-03  -5.4155830971813713e-03  -5.2743574723616926e-03  -5.1299547718215892e-03  -4.9824619783483083e-03  -4.8319679360855228e-03  -4.6785632970169581e-03  -4.5223404663610198e-03  -4.3633935469093452e-03  -4.2018182823428084e-03  -4.0377119995590946e-03  -3.8711735500466219e-03  -3.7023032503401042e-03  -3.5312028215936163e-03  -3.3579753283075756e-03  -3.1827251162465510e-03  -3.0055577495852570e-03  -2.8265799473206552e-03  -2.6458995189884197e-03  -2.4636252997224978e-03  -2.2798670846969097e-03  -2.0947355629892216e-03  -1.9083422509055964e-03  -1.7207994248075384e-03  -1.5322200534808115e-03  -1.3427177300872626e-03  -1.1524066037405618e-03  -9.6140131074702649e-04  -7.6981690555300757e-04  -5.7776879144039162e-04  -3.8537265101197527e-04  -1.9274437650860428e-04  -9.6182545843024085e-19  -0.0000000000000000e+00  -1.9246265525492426e-04  -3.8478027450062502e-04  -5.7684526195798556e-04  -7.6854657904908532e-04  -9.5977179551733831e-04  -1.1504079004251348e-03  -1.3403417179348805e-03  -1.5294601576168777e-03  -1.7176503865017371e-03  -1.9047999606625196e-03  -2.0907969341952457e-03  -2.2755299546917541e-03  -2.4588883501364045e-03  -2.6407622100487809e-03  -2.8210424625612724e-03  -2.9996209484795546e-03  -3.1763904929955297e-03  -3.3512449754897113e-03  -3.5240793977128473e-03  -3.6947899505400694e-03  -3.8632740794266583e-03  -4.0294305486503791e-03  -4.1931595043946225e-03  -4.3543625367048026e-03  -4.5129427403349763e-03  -4.6688047744901503e-03  -4.8218549214615368e-03  -4.9720011441457971e-03  -5.1191531424349375e-03  -5.2632224084599956e-03  -5.4041222806693870e-03  -5.5417679967207888e-03  -5.6760767451644618e-03  -5.8069677158947390e-03  -5.9343621493462145e-03  -6.0581833844105286e-03  -6.1783569050499025e-03  -6.2948103855833418e-03  -6.4074737346220476e-03  -6.5162791376303627e-03  -6.6211610980895091e-03  -6.7220564772416001e-03  -6.8189045323920868e-03  -6.9116469537492181e-03  -7.0002278997801561e-03  -7.0845940310636053e-03  -7.1646945426200696e-03  -7.2404811947011233e-03  -7.3119083420204005e-03  -7.3789329614093535e-03  -7.4415146778822163e-03  -7.4996157890948193e-03  -7.5532012881835585e-03  -7.6022388849710607e-03  -7.6466990255265295e-03  -7.6865549100692690e-03  -7.7217825092052066e-03  -7.7523605784869491e-03  -7.7782706712889249e-03  -7.7994971499902978e-03  -7.8160271954590844e-03  -7.8278508148320897e-03  -7.8349608475861976e-03  -7.8373529698975344e-03  -7.8350256972861028e-03  -7.8279803855443759e-03  -7.8162212299495680e-03  -7.7997552627599321e-03  -7.7785923489969251e-03  -7.7527451805155792e-03  -7.7222292683670115e-03  -7.6870629334573528e-03  -7.6472672955088796e-03  -7.6028662603299536e-03  -7.5538865054013337e-03  -7.5003574637874069e-03  -7.4423113063819936e-03  -7.3797829224991254e-03  -7.3128098988204382e-03  -7.2414324967114271e-03  -7.1656936279201047e-03  -7.0856388286722445e-03  -7.0013162321784454e-03  -6.9127765395691322e-03  -6.8200729892744505e-03  -6.7232613248668360e-03  -6.6223997613849847e-03  -6.5175489501585930e-03  -6.4087719421542649e-03  -6.2961341498633692e-03  -6.1797033077538111e-03  -6.0595494313077907e-03  -5.9357447746688366e-03  -5.8083637869215093e-03  -5.6774830670279931e-03  -5.5431813174459518e-03  -5.4055392964526931e-03  -5.2646397692006205e-03  -5.1205674575293221e-03  -4.9734089885594135e-03  -4.8232528420931479e-03  -4.6701892968462819e-03  -4.5143103755349223e-03  -4.3557097888399197e-03  -4.1944828782696656e-03  -4.0307265579398862e-03  -3.8645392552857957e-03  -3.6960208507175302e-03  -3.5252726162238769e-03  -3.3523971529210591e-03  -3.1774983275320114e-03  -3.0006812077656999e-03  -2.8220519965437849e-03  -2.6417179649897678e-03  -2.4597873840489057e-03  -2.2763694545371105e-03  -2.0915742353098095e-03  -1.9055125690726905e-03  -1.7182960050809376e-03  -1.5300367175071986e-03  -1.3408474174325105e-03  -1.1508412548700221e-03  -9.6013170415098126e-04  -7.6883241935014955e-04  -5.7705703057029615e-04  -3.8491880910343582e-04  -1.9252999286590219e-04  -9.6153577458464685e-19  -0.0000000000000000e+00  -1.9203695399110793e-04  -3.8391129672416999e-04  -5.7551806393844722e-04  -7.6674875888344863e-04  -9.5749312294413547e-04  -1.1476399940233430e-03  -1.3370777881994880e-03  -1.5256948070656083e-03  -1.7133794540400069e-03  -1.9000203988405373e-03  -2.0855067106682274e-03  -2.2697279715973855e-03  -2.4525743769067362e-03  -2.6339368264480484e-03  -2.8137070096270530e-03  -2.9917774856617271e-03  -3.1680417602216494e-03  -3.3423943591948703e-03  -3.5147309000960053e-03  -3.6849481614729881e-03  -3.8529441505639039e-03  -4.0186181693809362e-03  -4.1818708793460472e-03  -4.3426043645652581e-03  -4.5007221938008699e-03  -4.6561294811806805e-03  -4.8087329456680088e-03  -4.9584409693052391e-03  -5.1051636542347144e-03  -5.2488128784944320e-03  -5.3893023505811486e-03  -5.5265476627694007e-03  -5.6604663431724291e-03  -5.7909779065286066e-03  -5.9180039036955609e-03  -6.0414679698328408e-03  -6.1612958712534069e-03  -6.2774155509234620e-03  -6.3897571725902279e-03  -6.4982531635167174e-03  -6.6028382558030807e-03  -6.7034495262740211e-03  -6.8000264349122605e-03  -6.8925108618181734e-03  -6.9808471426767039e-03  -7.0649821027126136e-03  -7.1448650891162077e-03  -7.2204480019221022e-03  -7.2916853233244046e-03  -7.3585341454122689e-03  -7.4209541963109367e-03  -7.4789078647135854e-03  -7.5323602227907850e-03  -7.5812790474646752e-03  -7.6256348400363357e-03  -7.6654008441551721e-03  -7.7005530621206131e-03  -7.7310702695070118e-03  -7.7569340281034476e-03  -7.7781286971615529e-03  -7.7946414429450094e-03  -7.8064622465754364e-03  -7.8135839101704987e-03  -7.8160020612708832e-03  -7.8137151555538725e-03  -7.8067244778321047e-03  -7.7950341413372971e-03  -7.7786510852894709e-03  -7.7575850707534326e-03  -7.7318486747848109e-03  -7.7014572828698310e-03  -7.6664290796628065e-03  -7.6267850380272693e-03  -7.5825489063870519e-03  -7.5337471943950716e-03  -7.4804091569279675e-03  -7.4225667764161937e-03  -7.3602547435198049e-03  -7.2935104361611727e-03  -7.2223738969268711e-03  -7.1468878088516890e-03  -7.0670974695988299e-03  -6.9830507640509009e-03  -6.8947981353274955e-03  -6.8023925542457118e-03  -6.7058894872408844e-03  -6.6053468627653798e-03  -6.5008250361842284e-03  -6.3923867531870135e-03  -6.2800971117357787e-03  -6.1640235225697984e-03  -6.0442356682879807e-03  -5.9208054610306099e-03  -5.7938069987821883e-03  -5.6633165203174877e-03  -5.5294123588129863e-03  -5.3921748941460051e-03  -5.2516865039033680e-03  -5.1080315131213517e-03  -4.9612961427776816e-03  -4.8115684570555718e-03  -4.6589383093981482e-03  -4.5034972873699008e-03  -4.3453386563388260e-03  -4.1845573019898032e-03  -4.0212496716747577e-03  -3.8555137145992106e-03  -3.6874488208364746e-03  -3.5171557591499565e-03  -3.3447366135892710e-03  -3.1702947188058661e-03  -2.9939345940066604e-03  -2.8157618754260016e-03  -2.6358832471425914e-03  -2.4544063699909399e-03  -2.2714398082038299e-03  -2.0870929532531336e-03  -1.9014759440966502e-03  -1.7146995826286782e-03  -1.5268752424638847e-03  -1.3381147680545970e-03  -1.1485303591491161e-03  -9.5823443190270444e-04  -7.6733944066903763e-04  -5.7595762905756763e-04  -3.8420064318267331e-04  -1.9217885096230880e-04  -9.6066689754258149e-19  -0.0000000000000000e+00  -1.9147596187287275e-04  -3.8277722183601310e-04  -5.7379966291319835e-04  -7.6443627330935677e-04  -9.5457833069798666e-04  -1.1441161284367932e-03  -1.3329394324154474e-03  -1.5209377908659422e-03  -1.7080007606154050e-03  -1.8940180830057758e-03  -2.0788798278225103e-03  -2.2624765160092373e-03  -2.4446992278133778e-03  -2.6254397006072760e-03  -2.8045904191718813e-03  -2.9820447003155487e-03  -3.1576967731110905e-03  -3.3314418556452284e-03  -3.5031762289125324e-03  -3.6727973083056772e-03  -3.8402037130280506e-03  -4.0052953336651041e-03  -4.1679733980863600e-03  -4.3281405358027557e-03  -4.4857008408691708e-03  -4.6405599333958474e-03  -4.7926250197127210e-03  -4.9418049512158667e-03  -5.0880102819134184e-03  -5.2311533246799363e-03  -5.3711482062210681e-03  -5.5079109207451090e-03  -5.6413593823340987e-03  -5.7714134760037542e-03  -5.8979951074393088e-03  -6.0210282513922424e-03  -6.1404389987218576e-03  -6.2561556020642936e-03  -6.3681085201112205e-03  -6.4762304604797528e-03  -6.5804564211552133e-03  -6.6807237304879457e-03  -6.7769720857259593e-03  -6.8691435900648506e-03  -6.9571827881973270e-03  -7.0410367003446959e-03  -7.1206548547533156e-03  -7.1959893186395825e-03  -7.2669947275675658e-03  -7.3336283132441199e-03  -7.3958499297170494e-03  -7.4536220779624802e-03  -7.5069099288485649e-03  -7.5556813444633032e-03  -7.5999068977952696e-03  -7.6395598907565620e-03  -7.6746163705385638e-03  -7.7050551442917276e-03  -7.7308577921214924e-03  -7.7520086783935821e-03  -7.7684949613425827e-03  -7.7803066009788108e-03  -7.7874363652894749e-03  -7.7898798347307858e-03  -7.7876354050090395e-03  -7.7807042881493441e-03  -7.7690905118517704e-03  -7.7528009171356172e-03  -7.7318451542735056e-03  -7.7062356770178147e-03  -7.6759877351232882e-03  -7.6411193651701311e-03  -7.6016513796932231e-03  -7.5576073546238989e-03  -7.5090136150516148e-03  -7.4558992193139925e-03  -7.3982959414242147e-03  -7.3362382518461907e-03  -7.2697632966283281e-03  -7.1989108749079033e-03  -7.1237234147987988e-03  -7.0442459476761652e-03  -6.9605260808724883e-03  -6.8726139688001604e-03  -6.7805622825165843e-03  -6.6844261777484525e-03  -6.5842632613925048e-03  -6.4801335565107965e-03  -6.3720994658390219e-03  -6.2602257338268815e-03  -6.1445794072302589e-03  -6.0252297942747796e-03  -5.9022484224111795e-03  -5.7757089946827061e-03  -5.6456873447250037e-03  -5.5122613904185491e-03  -5.3755110862137388e-03  -5.2355183741478817e-03  -5.0923671335726586e-03  -4.9461431296093251e-03  -4.7969339603474740e-03  -4.6448290028007749e-03  -4.4899193576304966e-03  -4.3322977926436900e-03  -4.1720586850682159e-03  -4.0092979626003989e-03  -3.8441130432129472e-03  -3.6766027736998982e-03  -3.5068673669213495e-03  -3.3350083376918454e-03  -3.1611284372312387e-03  -2.9853315860627772e-03  -2.8077228051968080e-03  -2.6284081453737981e-03  -2.4474946140495783e-03  -2.2650900996753860e-03  -2.0813032926351453e-03  -1.8962436019187314e-03  -1.7100210661769605e-03  -1.5227462571246917e-03  -1.3345301721597045e-03  -1.1454841112222699e-03  -9.5571952969977596e-04  -7.6534785329007184e-04  -5.7448022952160684e-04  -3.8322716917734030e-04  -1.9169799518029815e-04  -9.5921935068308550e-19  -0.0000000000000000e+00  -1.9078484195072699e-04  -3.8138599475176358e-04  -5.7169965941075490e-04  -7.6161980262018565e-04  -9.5103888237406604e-04  -1.1398484053952676e-03  -1.3279393251140221e-03  -1.5152023314141806e-03  -1.7015280712005970e-03  -1.8868073244211320e-03  -2.0709311505118341e-03  -2.2537910145195412e-03  -2.4352788988172783e-03  -2.6152874043173513e-03  -2.7937098438290840e-03  -2.9704403293943759e-03  -3.1453738548928730e-03  -3.3184063748405521e-03  -3.4894348800504106e-03  -3.6583574706439935e-03  -3.8250734267739291e-03  -3.9894832773241778e-03  -4.1514888667861819e-03  -4.3109934204580425e-03  -4.4679016080757129e-03  -4.6221196059560623e-03  -4.7735551577096367e-03  -4.9221176335637121e-03  -5.0677180883231462e-03  -5.2102693179861409e-03  -5.3496859150241136e-03  -5.4858843223282820e-03  -5.6187828858209740e-03  -5.7483019057254494e-03  -5.8743636864853222e-03  -5.9968925853219135e-03  -6.1158150594165586e-03  -6.2310597117030209e-03  -6.3425573352546404e-03  -6.4502409562496865e-03  -6.5540458754984356e-03  -6.6539097085147403e-03  -6.7497724241152622e-03  -6.8415763815291427e-03  -6.9292663660015649e-03  -7.0127896228745854e-03  -7.0920958901291246e-03  -7.1671374293725953e-03  -7.2378690552569319e-03  -7.3042481633126604e-03  -7.3662347561850401e-03  -7.4237914682592212e-03  -7.4768835886617809e-03  -7.5254790826270570e-03  -7.5695486112175095e-03  -7.6090655493876828e-03  -7.6440060023828240e-03  -7.6743488204635271e-03  -7.7000756119490329e-03  -7.7211707545724586e-03  -7.7376214051421612e-03  -7.7494175075045087e-03  -7.7565517988041326e-03  -7.7590198140385430e-03  -7.7568198889052713e-03  -7.7499531609402138e-03  -7.7384235689471562e-03  -7.7222378507192067e-03  -7.7014055390538169e-03  -7.6759389560640988e-03  -7.6458532057900770e-03  -7.6111661651142443e-03  -7.5718984729871291e-03  -7.5280735179689929e-03  -7.4797174240952818e-03  -7.4268590350736350e-03  -7.3695298968220191e-03  -7.3077642383574766e-03  -7.2415989510467771e-03  -7.1710735662302858e-03  -7.0962302312318152e-03  -7.0171136837675237e-03  -6.9337712247681937e-03  -6.8462526896294843e-03  -6.7546104179057147e-03  -6.6588992214634156e-03  -6.5591763511114341e-03  -6.4555014617248508e-03  -6.3479365758806429e-03  -6.2365460460233864e-03  -6.1213965151796614e-03  -6.0025568762398967e-03  -5.8800982298269754e-03  -5.7540938407704204e-03  -5.6246190932052282e-03  -5.4917514443138049e-03  -5.3555703767291926e-03  -5.2161573496166923e-03  -5.0735957484500226e-03  -4.9279708334964674e-03  -4.7793696870235686e-03  -4.6278811592369981e-03  -4.4735958129561446e-03  -4.3166058670291146e-03  -4.1570051384835077e-03  -3.9948889834017362e-03  -3.8303542365005073e-03  -3.6634991493815524e-03  -3.4944233274053233e-03  -3.3232276651182029e-03  -3.1500142801367649e-03  -2.9748864453558706e-03  -2.7979485192985271e-03  -2.6193058743582162e-03  -2.4390648225920131e-03  -2.2573325385928976e-03  -2.0742169787846404e-03  -1.8898267962137007e-03  -1.7042712495136741e-03  -1.5176601041117521e-03  -1.3301035228012550e-03  -1.1417119412873210e-03  -9.5259592181738749e-04  -7.6286597386122847e-04  -5.7263232415957429e-04  -3.8200460959056506e-04  -1.9109146299425009e-04  -9.5719400595425975e-19  -0.0000000000000000e+00  -1.8996721275269516e-04  -3.7974370255836743e-04  -5.6922590439457488e-04  -7.5830853632530976e-04  -9.4688504168684870e-04  -1.1348479982076409e-03  -1.3220894483154048e-03  -1.5085011588228800e-03  -1.6939748281998351e-03  -1.8784022569300061e-03  -2.0616754919644785e-03  -2.2436869527028610e-03  -2.4243295434999497e-03  -2.6034967561090415e-03  -2.7810827644359172e-03  -2.9569825132865742e-03  -3.1310918023212519e-03  -3.3033073661000367e-03  -3.4735269508735190e-03  -3.6416493886052767e-03  -3.8075746685911293e-03  -3.9712040069501599e-03  -4.1324399141954337e-03  -4.2911862610413281e-03  -4.4473483425661597e-03  -4.6008329408186166e-03  -4.7515483859339033e-03  -4.8994046158074827e-03  -5.0443132343602195e-03  -5.1861875684177487e-03  -5.3249427232182570e-03  -5.4604956365558160e-03  -5.5927651315609743e-03  -5.7216719681160442e-03  -5.8471388928990793e-03  -5.9690906880476360e-03  -6.0874542184317605e-03  -6.2021584775234073e-03  -6.3131346318488369e-03  -6.4203160640092481e-03  -6.5236384142546063e-03  -6.6230396205947655e-03  -6.7184599574323812e-03  -6.8098420727014898e-03  -6.8971310234960982e-03  -6.9802743101731925e-03  -7.0592219089148523e-03  -7.1339263027346634e-03  -7.2043425109139412e-03  -7.2704281168538979e-03  -7.3321432943305445e-03  -7.3894508321395566e-03  -7.4423161571192222e-03  -7.4907073555400766e-03  -7.5345951928509070e-03  -7.5739531317711977e-03  -7.6087573487212037e-03  -7.6389867485814594e-03  -7.6646229777745378e-03  -7.6856504356626046e-03  -7.7020562842552952e-03  -7.7138304562231240e-03  -7.7209656612129158e-03  -7.7234573904621977e-03  -7.7213039197108271e-03  -7.7145063104086557e-03  -7.7030684092192951e-03  -7.6869968458207543e-03  -7.6663010290047365e-03  -7.6409931410772519e-03  -7.6110881305642393e-03  -7.5766037032265320e-03  -7.5375603113898649e-03  -7.4939811415959765e-03  -7.4458921005822205e-03  -7.3933217995977296e-03  -7.3363015370651345e-03  -7.2748652795975683e-03  -7.2090496413817571e-03  -7.1388938619385070e-03  -7.0644397822730819e-03  -6.9857318194281922e-03  -6.9028169394536876e-03  -6.8157446288071438e-03  -6.7245668642006593e-03  -6.6293380809094686e-03  -6.5301151395588345e-03  -6.4269572914058323e-03  -6.3199261421334960e-03  -6.2090856141747636e-03  -6.0945019075842625e-03  -5.9762434594758948e-03  -5.8543809020444497e-03  -5.7289870191891091e-03  -5.6001367017567451e-03  -5.4679069014221763e-03  -5.3323765832220624e-03  -5.1936266767578622e-03  -5.0517400260822352e-03  -4.9068013382811458e-03  -4.7588971307618933e-03  -4.6081156772540934e-03  -4.4545469525270175e-03  -4.2982825758217337e-03  -4.1394157529904855e-03  -3.9780412173278865e-03  -3.8142551690686730e-03  -3.6481552135140620e-03  -3.4798402977324811e-03  -3.3094106457593961e-03  -3.1369676921935361e-03  -2.9626140140506922e-03  -2.7864532606884118e-03  -2.6085900815507072e-03  -2.4291300513945261e-03  -2.2481795925396704e-03  -2.0658458935159528e-03  -1.8822368232426247e-03  -1.6974608395297099e-03  -1.5116268901812942e-03  -1.3248443042164085e-03  -1.1372226695655467e-03  -9.4887169186709259e-04  -7.5990102654558431e-04  -5.7042007356695979e-04  -3.8053772346487901e-04  -1.9036205230055835e-04  -9.5459208334803626e-19  -0.0000000000000000e+00  -1.8902588982662742e-04  -3.7785536371311032e-04  -5.6638515661076817e-04  -7.5451066206728013e-04  -9.4212621347888978e-04  -1.1291253824005649e-03  -1.3154012463194738e-03  -1.5008466154617338e-03  -1.6853542230761661e-03  -1.8688168869951600e-03  -2.0511276495622653e-03  -2.2321799013947483e-03  -2.4118674929638892e-03  -2.5900848368495236e-03  -2.7667270027231378e-03  -2.9416898065514081e-03  -3.1148698951165544e-03  -3.2861648266679960e-03  -3.4554731483164573e-03  -3.6226944706326787e-03  -3.7877295398023253e-03  -3.95