<?xml version="1.0"?>
<VTKFile type="UnstructuredGrid"  version="0.1"  >
<UnstructuredGrid>
<Piece  NumberOfPoints="4225" NumberOfCells="8192">
<Points>
<DataArray  type="Float64"  NumberOfComponents="3"  format="ascii">0 0 0  0.015625 0 0  0.03125 0 0  0.046875 0 0  0.0625 0 0  0.078125 0 0  0.09375 0 0  0.109375 0 0  0.125 0 0  0.140625 0 0  0.15625 0 0  0.171875 0 0  0.1875 0 0  0.203125 0 0  0.21875 0 0  0.234375 0 0  0.25 0 0  0.265625 0 0  0.28125 0 0  0.296875 0 0  0.3125 0 0  0.328125 0 0  0.34375 0 0  0.359375 0 0  0.375 0 0  0.390625 0 0  0.40625 0 0  0.421875 0 0  0.4375 0 0  0.453125 0 0  0.46875 0 0  0.484375 0 0  0.5 0 0  0.515625 0 0  0.53125 0 0  0.546875 0 0  0.5625 0 0  0.578125 0 0  0.59375 0 0  0.609375 0 0  0.625 0 0  0.640625 0 0  0.65625 0 0  0.671875 0 0  0.6875 0 0  0.703125 0 0  0.71875 0 0  0.734375 0 0  0.75 0 0  0.765625 0 0  0.78125 0 0  0.796875 0 0  0.8125 0 0  0.828125 0 0  0.84375 0 0  0.859375 0 0  0.875 0 0  0.890625 0 0  0.90625 0 0  0.921875 0 0  0.9375 0 0  0.953125 0 0  0.96875 0 0  0.984375 0 0  1 0 0  0 0.015625 0  0.015625 0.015625 0  0.03125 0.015625 0  0.046875 0.015625 0  0.0625 0.015625 0  0.078125 0.015625 0  0.09375 0.015625 0  0.109375 0.015625 0  0.125 0.015625 0  0.140625 0.015625 0  0.15625 0.015625 0  0.171875 0.015625 0  0.1875 0.015625 0  0.203125 0.015625 0  0.21875 0.015625 0  0.234375 0.015625 0  0.25 0.015625 0  0.265625 0.015625 0  0.28125 0.015625 0  0.296875 0.015625 0  0.3125 0.015625 0  0.328125 0.015625 0  0.34375 0.015625 0  0.359375 0.015625 0  0.375 0.015625 0  0.390625 0.015625 0  0.40625 0.015625 0  0.421875 0.015625 0  0.4375 0.015625 0  0.453125 0.015625 0  0.46875 0.015625 0  0.484375 0.015625 0  0.5 0.015625 0  0.515625 0.015625 0  0.53125 0.015625 0  0.546875 0.015625 0  0.5625 0.015625 0  0.578125 0.015625 0  0.59375 0.015625 0  0.609375 0.015625 0  0.625 0.015625 0  0.640625 0.015625 0  0.65625 0.015625 0  0.671875 0.015625 0  0.6875 0.015625 0  0.703125 0.015625 0  0.71875 0.015625 0  0.734375 0.015625 0  0.75 0.015625 0  0.765625 0.015625 0  0.78125 0.015625 0  0.796875 0.015625 0  0.8125 0.015625 0  0.828125 0.015625 0  0.84375 0.015625 0  0.859375 0.015625 0  0.875 0.015625 0  0.890625 0.015625 0  0.90625 0.015625 0  0.921875 0.015625 0  0.9375 0.015625 0  0.953125 0.015625 0  0.96875 0.015625 0  0.984375 0.015625 0  1 0.015625 0  0 0.03125 0  0.015625 0.03125 0  0.03125 0.03125 0  0.046875 0.03125 0  0.0625 0.03125 0  0.078125 0.03125 0  0.09375 0.03125 0  0.109375 0.03125 0  0.125 0.03125 0  0.140625 0.03125 0  0.15625 0.03125 0  0.171875 0.03125 0  0.1875 0.03125 0  0.203125 0.03125 0  0.21875 0.03125 0  0.234375 0.03125 0  0.25 0.03125 0  0.265625 0.03125 0  0.28125 0.03125 0  0.296875 0.03125 0  0.3125 0.03125 0  0.328125 0.03125 0  0.34375 0.03125 0  0.359375 0.03125 0  0.375 0.03125 0  0.390625 0.03125 0  0.40625 0.03125 0  0.421875 0.03125 0  0.4375 0.03125 0  0.453125 0.03125 0  0.46875 0.03125 0  0.484375 0.03125 0  0.5 0.03125 0  0.515625 0.03125 0  0.53125 0.03125 0  0.546875 0.03125 0  0.5625 0.03125 0  0.578125 0.03125 0  0.59375 0.03125 0  0.609375 0.03125 0  0.625 0.03125 0  0.640625 0.03125 0  0.65625 0.03125 0  0.671875 0.03125 0  0.6875 0.03125 0  0.703125 0.03125 0  0.71875 0.03125 0  0.734375 0.03125 0  0.75 0.03125 0  0.765625 0.03125 0  0.78125 0.03125 0  0.796875 0.03125 0  0.8125 0.03125 0  0.828125 0.03125 0  0.84375 0.03125 0  0.859375 0.03125 0  0.875 0.03125 0  0.890625 0.03125 0  0.90625 0.03125 0  0.921875 0.03125 0  0.9375 0.03125 0  0.953125 0.03125 0  0.96875 0.03125 0  0.984375 0.03125 0  1 0.03125 0  0 0.046875 0  0.015625 0.046875 0  0.03125 0.046875 0  0.046875 0.046875 0  0.0625 0.046875 0  0.078125 0.046875 0  0.09375 0.046875 0  0.109375 0.046875 0  0.125 0.046875 0  0.140625 0.046875 0  0.15625 0.046875 0  0.171875 0.046875 0  0.1875 0.046875 0  0.203125 0.046875 0  0.21875 0.046875 0  0.234375 0.046875 0  0.25 0.046875 0  0.265625 0.046875 0  0.28125 0.046875 0  0.296875 0.046875 0  0.3125 0.046875 0  0.328125 0.046875 0  0.34375 0.046875 0  0.359375 0.046875 0  0.375 0.046875 0  0.390625 0.046875 0  0.40625 0.046875 0  0.421875 0.046875 0  0.4375 0.046875 0  0.453125 0.046875 0  0.46875 0.046875 0  0.484375 0.046875 0  0.5 0.046875 0  0.515625 0.046875 0  0.53125 0.046875 0  0.546875 0.046875 0  0.5625 0.046875 0  0.578125 0.046875 0  0.59375 0.046875 0  0.609375 0.046875 0  0.625 0.046875 0  0.640625 0.046875 0  0.65625 0.046875 0  0.671875 0.046875 0  0.6875 0.046875 0  0.703125 0.046875 0  0.71875 0.046875 0  0.734375 0.046875 0  0.75 0.046875 0  0.765625 0.046875 0  0.78125 0.046875 0  0.796875 0.046875 0  0.8125 0.046875 0  0.828125 0.046875 0  0.84375 0.046875 0  0.859375 0.046875 0  0.875 0.046875 0  0.890625 0.046875 0  0.90625 0.046875 0  0.921875 0.046875 0  0.9375 0.046875 0  0.953125 0.046875 0  0.96875 0.046875 0  0.984375 0.046875 0  1 0.046875 0  0 0.0625 0  0.015625 0.0625 0  0.03125 0.0625 0  0.046875 0.0625 0  0.0625 0.0625 0  0.078125 0.0625 0  0.09375 0.0625 0  0.109375 0.0625 0  0.125 0.0625 0  0.140625 0.0625 0  0.15625 0.0625 0  0.171875 0.0625 0  0.1875 0.0625 0  0.203125 0.0625 0  0.21875 0.0625 0  0.234375 0.0625 0  0.25 0.0625 0  0.265625 0.0625 0  0.28125 0.0625 0  0.296875 0.0625 0  0.3125 0.0625 0  0.328125 0.0625 0  0.34375 0.0625 0  0.359375 0.0625 0  0.375 0.0625 0  0.390625 0.0625 0  0.40625 0.0625 0  0.421875 0.0625 0  0.4375 0.0625 0  0.453125 0.0625 0  0.46875 0.0625 0  0.484375 0.0625 0  0.5 0.0625 0  0.515625 0.0625 0  0.53125 0.0625 0  0.546875 0.0625 0  0.5625 0.0625 0  0.578125 0.0625 0  0.59375 0.0625 0  0.609375 0.0625 0  0.625 0.0625 0  0.640625 0.0625 0  0.65625 0.0625 0  0.671875 0.0625 0  0.6875 0.0625 0  0.703125 0.0625 0  0.71875 0.0625 0  0.734375 0.0625 0  0.75 0.0625 0  0.765625 0.0625 0  0.78125 0.0625 0  0.796875 0.0625 0  0.8125 0.0625 0  0.828125 0.0625 0  0.84375 0.0625 0  0.859375 0.0625 0  0.875 0.0625 0  0.890625 0.0625 0  0.90625 0.0625 0  0.921875 0.0625 0  0.9375 0.0625 0  0.953125 0.0625 0  0.96875 0.0625 0  0.984375 0.0625 0  1 0.0625 0  0 0.078125 0  0.015625 0.078125 0  0.03125 0.078125 0  0.046875 0.078125 0  0.0625 0.078125 0  0.078125 0.078125 0  0.09375 0.078125 0  0.109375 0.078125 0  0.125 0.078125 0  0.140625 0.078125 0  0.15625 0.078125 0  0.171875 0.078125 0  0.1875 0.078125 0  0.203125 0.078125 0  0.21875 0.078125 0  0.234375 0.078125 0  0.25 0.078125 0  0.265625 0.078125 0  0.28125 0.078125 0  0.296875 0.078125 0  0.3125 0.078125 0  0.328125 0.078125 0  0.34375 0.078125 0  0.359375 0.078125 0  0.375 0.078125 0  0.390625 0.078125 0  0.40625 0.078125 0  0.421875 0.078125 0  0.4375 0.078125 0  0.453125 0.078125 0  0.46875 0.078125 0  0.484375 0.078125 0  0.5 0.078125 0  0.515625 0.078125 0  0.53125 0.078125 0  0.546875 0.078125 0  0.5625 0.078125 0  0.578125 0.078125 0  0.59375 0.078125 0  0.609375 0.078125 0  0.625 0.078125 0  0.640625 0.078125 0  0.65625 0.078125 0  0.671875 0.078125 0  0.6875 0.078125 0  0.703125 0.078125 0  0.71875 0.078125 0  0.734375 0.078125 0  0.75 0.078125 0  0.765625 0.078125 0  0.78125 0.078125 0  0.796875 0.078125 0  0.8125 0.078125 0  0.828125 0.078125 0  0.84375 0.078125 0  0.859375 0.078125 0  0.875 0.078125 0  0.890625 0.078125 0  0.90625 0.078125 0  0.921875 0.078125 0  0.9375 0.078125 0  0.953125 0.078125 0  0.96875 0.078125 0  0.984375 0.078125 0  1 0.078125 0  0 0.09375 0  0.015625 0.09375 0  0.03125 0.09375 0  0.046875 0.09375 0  0.0625 0.09375 0  0.078125 0.09375 0  0.09375 0.09375 0  0.109375 0.09375 0  0.125 0.09375 0  0.140625 0.09375 0  0.15625 0.09375 0  0.171875 0.09375 0  0.1875 0.09375 0  0.203125 0.09375 0  0.21875 0.09375 0  0.234375 0.09375 0  0.25 0.09375 0  0.265625 0.09375 0  0.28125 0.09375 0  0.296875 0.09375 0  0.3125 0.09375 0  0.328125 0.09375 0  0.34375 0.09375 0  0.359375 0.09375 0  0.375 0.09375 0  0.390625 0.09375 0  0.40625 0.09375 0  0.421875 0.09375 0  0.4375 0.09375 0  0.453125 0.09375 0  0.46875 0.09375 0  0.484375 0.09375 0  0.5 0.09375 0  0.515625 0.09375 0  0.53125 0.09375 0  0.546875 0.09375 0  0.5625 0.09375 0  0.578125 0.09375 0  0.59375 0.09375 0  0.609375 0.09375 0  0.625 0.09375 0  0.640625 0.09375 0  0.65625 0.09375 0  0.671875 0.09375 0  0.6875 0.09375 0  0.703125 0.09375 0  0.71875 0.09375 0  0.734375 0.09375 0  0.75 0.09375 0  0.765625 0.09375 0  0.78125 0.09375 0  0.796875 0.09375 0  0.8125 0.09375 0  0.828125 0.09375 0  0.84375 0.09375 0  0.859375 0.09375 0  0.875 0.09375 0  0.890625 0.09375 0  0.90625 0.09375 0  0.921875 0.09375 0  0.9375 0.09375 0  0.953125 0.09375 0  0.96875 0.09375 0  0.984375 0.09375 0  1 0.09375 0  0 0.109375 0  0.015625 0.109375 0  0.03125 0.109375 0  0.046875 0.109375 0  0.0625 0.109375 0  0.078125 0.109375 0  0.09375 0.109375 0  0.109375 0.109375 0  0.125 0.109375 0  0.140625 0.109375 0  0.15625 0.109375 0  0.171875 0.109375 0  0.1875 0.109375 0  0.203125 0.109375 0  0.21875 0.109375 0  0.234375 0.109375 0  0.25 0.109375 0  0.265625 0.109375 0  0.28125 0.109375 0  0.296875 0.109375 0  0.3125 0.109375 0  0.328125 0.109375 0  0.34375 0.109375 0  0.359375 0.109375 0  0.375 0.109375 0  0.390625 0.109375 0  0.40625 0.109375 0  0.421875 0.109375 0  0.4375 0.109375 0  0.453125 0.109375 0  0.46875 0.109375 0  0.484375 0.109375 0  0.5 0.109375 0  0.515625 0.109375 0  0.53125 0.109375 0  0.546875 0.109375 0  0.5625 0.109375 0  0.578125 0.109375 0  0.59375 0.109375 0  0.609375 0.109375 0  0.625 0.109375 0  0.640625 0.109375 0  0.65625 0.109375 0  0.671875 0.109375 0  0.6875 0.109375 0  0.703125 0.109375 0  0.71875 0.109375 0  0.734375 0.109375 0  0.75 0.109375 0  0.765625 0.109375 0  0.78125 0.109375 0  0.796875 0.109375 0  0.8125 0.109375 0  0.828125 0.109375 0  0.84375 0.109375 0  0.859375 0.109375 0  0.875 0.109375 0  0.890625 0.109375 0  0.90625 0.109375 0  0.921875 0.109375 0  0.9375 0.109375 0  0.953125 0.109375 0  0.96875 0.109375 0  0.984375 0.109375 0  1 0.109375 0  0 0.125 0  0.015625 0.125 0  0.03125 0.125 0  0.046875 0.125 0  0.0625 0.125 0  0.078125 0.125 0  0.09375 0.125 0  0.109375 0.125 0  0.125 0.12
[...]
<PointData  Vectors="f_176312-0"> 
<DataArray  type="Float64"  Name="f_176312-0"  NumberOfComponents="3" format="ascii">0.0000000000000000e+00 0.0000000000000000e+00 0.0000000000000000e+00  0.0000000000000000e+00 1.5162745241627067e-02 0.0000000000000000e+00  0.0000000000000000e+00 3.0288962101867427e-02 0.0000000000000000e+00  0.0000000000000000e+00 4.5342210199404646e-02 0.0000000000000000e+00  0.0000000000000000e+00 6.0286224941062921e-02 0.0000000000000000e+00  0.0000000000000000e+00 7.5085004886388529e-02 0.0000000000000000e+00  0.0000000000000000e+00 8.9702898478273146e-02 0.0000000000000000e+00  0.0000000000000000e+00 1.0410468993067766e-01 0.0000000000000000e+00  0.0000000000000000e+00 1.1825568406654526e-01 0.0000000000000000e+00  0.0000000000000000e+00 1.3212178990152196e-01 0.0000000000000000e+00  0.0000000000000000e+00 1.4566960277212387e-01 0.0000000000000000e+00  0.0000000000000000e+00 1.5886648481049742e-01 0.0000000000000000e+00  0.0000000000000000e+00 1.7168064357190194e-01 0.0000000000000000e+00  0.0000000000000000e+00 1.8408120862549329e-01 0.0000000000000000e+00  0.0000000000000000e+00 1.9603830592389629e-01 0.0000000000000000e+00  0.0000000000000000e+00 2.0752312977240092e-01 0.0000000000000000e+00  0.0000000000000000e+00 2.1850801222440450e-01 0.0000000000000000e+00  0.0000000000000000e+00 2.2896648973591804e-01 0.0000000000000000e+00  0.0000000000000000e+00 2.3887336691856190e-01 0.0000000000000000e+00  0.0000000000000000e+00 2.4820477723746298e-01 0.0000000000000000e+00  0.0000000000000000e+00 2.5693824050782826e-01 0.0000000000000000e+00  0.0000000000000000e+00 2.6505271705167827e-01 0.0000000000000000e+00  0.0000000000000000e+00 2.7252865838427459e-01 0.0000000000000000e+00  0.0000000000000000e+00 2.7934805430813209e-01 0.0000000000000000e+00  0.0000000000000000e+00 2.8549447630116148e-01 0.0000000000000000e+00  0.0000000000000000e+00 2.9095311709441862e-01 0.0000000000000000e+00  0.0000000000000000e+00 2.9571082634411217e-01 0.0000000000000000e+00  0.0000000000000000e+00 2.9975614231193337e-01 0.0000000000000000e+00  0.0000000000000000e+00 3.0307931947738792e-01 0.0000000000000000e+00  0.0000000000000000e+00 3.0567235201560844e-01 0.0000000000000000e+00  0.0000000000000000e+00 3.0752899308408738e-01 0.0000000000000000e+00  0.0000000000000000e+00 3.0864476987186829e-01 0.0000000000000000e+00  0.0000000000000000e+00 3.0901699437493885e-01 0.0000000000000000e+00  -0.0000000000000000e+00 3.0864476987186829e-01 0.0000000000000000e+00  -0.0000000000000000e+00 3.0752899308408738e-01 0.0000000000000000e+00  -0.0000000000000000e+00 3.0567235201560844e-01 0.0000000000000000e+00  -0.0000000000000000e+00 3.0307931947738792e-01 0.0000000000000000e+00  -0.0000000000000000e+00 2.9975614231193337e-01 0.0000000000000000e+00  -0.0000000000000000e+00 2.9571082634411217e-01 0.0000000000000000e+00  -0.0000000000000000e+00 2.9095311709441862e-01 0.0000000000000000e+00  -0.0000000000000000e+00 2.8549447630116148e-01 0.0000000000000000e+00  -0.0000000000000000e+00 2.7934805430813214e-01 0.0000000000000000e+00  -0.0000000000000000e+00 2.7252865838427465e-01 0.0000000000000000e+00  -0.0000000000000000e+00 2.6505271705167827e-01 0.0000000000000000e+00  -0.0000000000000000e+00 2.5693824050782832e-01 0.0000000000000000e+00  -0.0000000000000000e+00 2.4820477723746301e-01 0.0000000000000000e+00  -0.0000000000000000e+00 2.3887336691856190e-01 0.0000000000000000e+00  -0.0000000000000000e+00 2.2896648973591802e-01 0.0000000000000000e+00  -0.0000000000000000e+00 2.1850801222440452e-01 0.0000000000000000e+00  -0.0000000000000000e+00 2.0752312977240098e-01 0.0000000000000000e+00  -0.0000000000000000e+00 1.9603830592389629e-01 0.0000000000000000e+00  -0.0000000000000000e+00 1.8408120862549332e-01 0.0000000000000000e+00  -0.0000000000000000e+00 1.7168064357190194e-01 0.0000000000000000e+00  -0.0000000000000000e+00 1.5886648481049748e-01 0.0000000000000000e+00  -0.0000000000000000e+00 1.4566960277212393e-01 0.0000000000000000e+00  -0.0000000000000000e+00 1.3212178990152193e-01 0.0000000000000000e+00  -0.0000000000000000e+00 1.1825568406654530e-01 0.0000000000000000e+00  -0.0000000000000000e+00 1.0410468993067774e-01 0.0000000000000000e+00  -0.0000000000000000e+00 8.9702898478273146e-02 0.0000000000000000e+00  -0.0000000000000000e+00 7.5085004886388598e-02 0.0000000000000000e+00  -0.0000000000000000e+00 6.0286224941063025e-02 0.0000000000000000e+00  -0.0000000000000000e+00 4.5342210199404653e-02 0.0000000000000000e+00  -0.0000000000000000e+00 3.0288962101867496e-02 0.0000000000000000e+00  -0.0000000000000000e+00 1.5162745241627052e-02 0.0000000000000000e+00  -0.0000000000000000e+00 3.7843667304340458e-17 0.0000000000000000e+00  1.5162745241627067e-02 0.0000000000000000e+00 0.0000000000000000e+00  1.5144633262187701e-02 1.5144568962937708e-02 0.0000000000000000e+00  1.5089953042919081e-02 3.0252545701129938e-02 0.0000000000000000e+00  1.4998880541921736e-02 4.5287610575605083e-02 0.0000000000000000e+00  1.4871655061183266e-02 6.0213561093127949e-02 0.0000000000000000e+00  1.4708590707314005e-02 7.4994445521383041e-02 0.0000000000000000e+00  1.4510083981658041e-02 8.9594658144831682e-02 0.0000000000000000e+00  1.4276615148569890e-02 1.0397902719311086e-01 0.0000000000000000e+00  1.4008747915042065e-02 1.1811290028666084e-01 0.0000000000000000e+00  1.3707128434444727e-02 1.3196222820208833e-01 0.0000000000000000e+00  1.3372483925879895e-02 1.4549364703190670e-01 0.0000000000000000e+00  1.3005621015736133e-02 1.5867455862975163e-01 0.0000000000000000e+00  1.2607423847752434e-02 1.7147320918087777e-01 0.0000000000000000e+00  1.2178851985230771e-02 1.8385876572313548e-01 0.0000000000000000e+00  1.1720938119763723e-02 1.9580139044096090e-01 0.0000000000000000e+00  1.1234785596847001e-02 2.0727231255695194e-01 0.0000000000000000e+00  1.0721565767008874e-02 2.1824389764976504e-01 0.0000000000000000e+00  1.0182515170381273e-02 2.2868971423246481e-01 0.0000000000000000e+00  9.6189325624234032e-03 2.3858459743159940e-01 0.0000000000000000e+00  9.0321757885422540e-03 2.4790470961401473e-01 0.0000000000000000e+00  8.4236585155123139e-03 2.5662759781561600e-01 0.0000000000000000e+00  7.7948468278135159e-03 2.6473224783391441e-01 0.0000000000000000e+00  7.1472556972538475e-03 2.7219913485415448e-01 0.0000000000000000e+00  6.4824453345003604e-03 2.7901027048714955e-01 0.0000000000000000e+00  5.8020174313853090e-03 2.8514924610556613e-01 0.0000000000000000e+00  5.1076113030999850e-03 2.9060127237429911e-01 0.0000000000000000e+00  4.4008999396140808e-03 2.9535321487973304e-01 0.0000000000000000e+00  3.6835859758616216e-03 2.9939362577208906e-01 0.0000000000000000e+00  2.9573975904267436e-03 3.0271277134463120e-01 0.0000000000000000e+00  2.2240843426247618e-03 3.0530265548332347e-01 0.0000000000000000e+00  1.4854129580223422e-03 3.0715703893043772e-01 0.0000000000000000e+00  7.4316307255583474e-04 3.0827145431573050e-01 0.0000000000000000e+00  -8.7705448926009344e-07 3.0864321691896901e-01 0.0000000000000000e+00  -7.4491484830923639e-04 3.0827143113790045e-01 0.0000000000000000e+00  -1.4871577368411508e-03 3.0715699264607188e-01 0.0000000000000000e+00  -2.2258174690465921e-03 3.0530258623531847e-01 0.0000000000000000e+00  -2.9591144228175393e-03 3.0271267934811547e-01 0.0000000000000000e+00  -3.6852818921282496e-03 2.9939351131538539e-01 0.0000000000000000e+00  -4.4025703431096151e-03 2.9535307832567759e-01 0.0000000000000000e+00  -5.1092516287948074e-03 2.9060111416195078e-01 0.0000000000000000e+00  -5.8036231523909149e-03 2.8514906675235280e-01 0.0000000000000000e+00  -6.4840119690545619e-03 2.7901007059150501e-01 0.0000000000000000e+00  -7.1487788162996838e-03 2.7219891509872018e-01 0.0000000000000000e+00  -7.7963220633381529e-03 2.6473200898939342e-01 0.0000000000000000e+00  -8.4250815698557642e-03 2.5662734074539573e-01 0.0000000000000000e+00  -9.0335424449449527e-03 2.4790443527970452e-01 0.0000000000000000e+00  -9.6202386971587159e-03 2.3858430689966234e-01 0.0000000000000000e+00  -1.0183756766920130e-02 2.2868940868218349e-01 0.0000000000000000e+00  -1.0722738932807094e-02 2.1824357838285649e-01 0.0000000000000000e+00  -1.1235886583545938e-02 2.0727198100924252e-01 0.0000000000000000e+00  -1.1721963347872287e-02 1.9580104819668304e-01 0.0000000000000000e+00  -1.2179798074768485e-02 1.8385841453263327e-01 0.0000000000000000e+00  -1.2608287656945926e-02 1.7147285098283274e-01 0.0000000000000000e+00  -1.3006399690805718e-02 1.5867419557956969e-01 0.0000000000000000e+00  -1.3373174966459546e-02 1.4549328153875887e-01 0.0000000000000000e+00  -1.3707729781678484e-02 1.3196186297855578e-01 0.0000000000000000e+00  -1.4009258073746131e-02 1.1811253841755694e-01 0.0000000000000000e+00  -1.4277033362827369e-02 1.0397867223506546e-01 0.0000000000000000e+00  -1.4510410498828090e-02 8.9594314278601137e-02 0.0000000000000000e+00  -1.4708827198507685e-02 7.4994117802553772e-02 0.0000000000000000e+00  -1.4871805343871896e-02 6.0213255908711093e-02 0.0000000000000000e+00  -1.4998951965781777e-02 4.5287336603044848e-02 0.0000000000000000e+00  -1.5089959675795569e-02 3.0252316359375180e-02 0.0000000000000000e+00  -1.5144606207775030e-02 1.5144410660335179e-02 0.0000000000000000e+00  -1.5162745241627067e-02 3.7798082949715494e-17 0.0000000000000000e+00  3.0288962101867427e-02 0.0000000000000000e+00 0.0000000000000000e+00  3.0252668739710886e-02 1.5089824890446852e-02 0.0000000000000000e+00  3.0143419374546957e-02 3.0143174160674829e-02 0.0000000000000000e+00  2.9961498394536885e-02 4.5123848889267085e-02 0.0000000000000000e+00  2.9707361495368973e-02 5.9995787741384823e-02 0.0000000000000000e+00  2.9381632647591031e-02 7.4723176010053835e-02 0.0000000000000000e+00  2.8985103535345041e-02 8.9270540594598366e-02 0.0000000000000000e+00  2.8518733695802812e-02 1.0360283910735132e-01 0.0000000000000000e+00  2.7983649407637614e-02 1.1768554581873687e-01 0.0000000000000000e+00  2.7381141608255579e-02 1.3148473551363293e-01 0.0000000000000000e+00  2.6712663125602953e-02 1.4496716555053729e-01 0.0000000000000000e+00  2.5979825372582269e-02 1.5810035611941045e-01 0.0000000000000000e+00  2.5184394580861538e-02 1.7085266858582754e-01 0.0000000000000000e+00  2.4328287617877892e-02 1.8319338176919958e-01 0.0000000000000000e+00  2.3413567415419993e-02 1.9509276598897471e-01 0.0000000000000000e+00  2.2442438030866301e-02 2.0652215470955315e-01 0.0000000000000000e+00  2.1417239358740497e-02 2.1745401361628974e-01 0.0000000000000000e+00  2.0340441508742677e-02 2.2786200695901138e-01 0.0000000000000000e+00  1.9214638865899858e-02 2.3772106100491705e-01 0.0000000000000000e+00  1.8042543848474327e-02 2.4700742444903492e-01 0.0000000000000000e+00  1.6826980379526568e-02 2.5569872563738033e-01 0.0000000000000000e+00  1.5570877088436479e-02 2.6377402646538023e-01 0.0000000000000000e+00  1.4277260259153709e-02 2.7121387282202497e-01 0.0000000000000000e+00  1.2949246542433032e-02 2.7800034145841079e-01 0.0000000000000000e+00  1.1590035449805398e-02 2.8411708316791834e-01 0.0000000000000000e+00  1.0202901647504703e-02 2.8954936217409316e-01 0.0000000000000000e+00  8.7911870690141163e-03 2.9428409163141761e-01 0.0000000000000000e+00  7.3582928653075858e-03 2.9830986515350089e-01 0.0000000000000000e+00  5.9076712122332004e-03 3.0161698429278327e-01 0.0000000000000000e+00  4.4428169948130692e-03 3.0419748190557583e-01 0.0000000000000000e+00  2.9672593885277979e-03 3.0604514134617544e-01 0.0000000000000000e+00  1.4845533578825862e-03 3.0715551144383618e-01 0.0000000000000000e+00  -1.7289072441057706e-06 3.0752591722653083e-01 0.0000000000000000e+00  -1.4880065968313760e-03 3.0715546636568525e-01 0.0000000000000000e+00  -2.9706989067857588e-03 3.0604505132636245e-01 0.0000000000000000e+00  -4.4462336650696902e-03 3.0419734721773661e-01 0.0000000000000000e+00  -5.9110559371067664e-03 3.0161680534903662e-01 0.0000000000000000e+00  -7.3616365897331342e-03 2.9830964250649683e-01 0.0000000000000000e+00  -8.7944807930726704e-03 2.9428382597715202e-01 0.0000000000000000e+00  -1.0206136439861185e-02 2.8954905435555894e-01 0.0000000000000000e+00  -1.1593202461948064e-02 2.8411673417970235e-01 0.0000000000000000e+00  -1.2952337023955332e-02 2.7799995245236370e-01 0.0000000000000000e+00  -1.4280265574372114e-02 2.7121344511416373e-01 0.0000000000000000e+00  -1.5573788734708698e-02 2.6377356154423576e-01 0.0000000000000000e+00  -1.6829790007734494e-02 2.5569822517405488e-01 0.0000000000000000e+00  -1.8045243286255334e-02 2.4700689030931178e-01 0.0000000000000000e+00  -1.9217220144378811e-02 2.3772049526384828e-01 0.0000000000000000e+00  -2.0342896893742961e-02 2.2786141191856088e-01 0.0000000000000000e+00  -2.1419561387754565e-02 2.1745339182677151e-01 0.0000000000000000e+00  -2.2444619557492142e-02 2.0652150899588370e-01 0.0000000000000000e+00  -2.3415601663576709e-02 1.9509209948310985e-01 0.0000000000000000e+00  -2.4330168248982681e-02 1.8319269795070359e-01 0.0000000000000000e+00  -2.5186115778446882e-02 1.7085197133337163e-01 0.0000000000000000e+00  -2.5981381950809217e-02 1.5809964977735516e-01 0.0000000000000000e+00  -2.6714050671224707e-02 1.4496645501697800e-01 0.0000000000000000e+00  -2.7382356670622148e-02 1.3148402636011114e-01 0.0000000000000000e+00  -2.7984689759812529e-02 1.1768484445867601e-01 0.0000000000000000e+00  -2.8519598704762318e-02 1.0360215304329157e-01 0.0000000000000000e+00  -2.8985794706625809e-02 8.9269878800640245e-02 0.0000000000000000e+00  -2.9382154462831187e-02 7.4722549563188231e-02 0.0000000000000000e+00  -2.9707722769643216e-02 5.9995210949833379e-02 0.0000000000000000e+00  -2.9961714601146279e-02 4.5123341503507955e-02 0.0000000000000000e+00  -3.0143516596929626e-02 3.0142766136418270e-02 0.0000000000000000e+00  -3.0252688767526868e-02 1.5089566893155036e-02 0.0000000000000000e+00  -3.0288962101867427e-02 3.7661439702543612e-17 0.0000000000000000e+00  4.5342210199404633e-02 0.0000000000000000e+00 0.0000000000000000e+00  4.5287788489666733e-02 1.4998689279958280e-02 0.0000000000000000e+00  4.5124202826853720e-02 2.9961132707046399e-02 0.0000000000000000e+00  4.4851856818758355e-02 4.4851329826321548e-02 0.0000000000000000e+00  4.4471416286368394e-02 5.9633435691244109e-02 0.0000000000000000e+00  4.3983807742463417e-02 7.4271855050495036e-02 0.0000000000000000e+00  4.3390213489138518e-02 8.8731331967370874e-02 0.0000000000000000e+00  4.2692068945614635e-02 1.0297703777555346e-01 0.0000000000000000e+00  4.1891059811075215e-02 1.1697465667400042e-01 0.0000000000000000e+00  4.0989118521533037e-02 1.3069046930185302e-01 0.0000000000000000e+00  3.9988419948054160e-02 1.4409143446220796e-01 0.0000000000000000e+00  3.8891376388013522e-02 1.5714526899675174e-01 0.0000000000000000e+00  3.7700631904093659e-02 1.6982052571978207e-01 0.0000000000000000e+00  3.6419056054047563e-02 1.8208666927527722e-01 0.0000000000000000e+00  3.5049737044869779e-02 1.9391414976120078e-01 0.0000000000000000e+00  3.3595974339360415e-02 2.0527447395829651e-01 0.0000000000000000e+00  3.2061270740044161e-02 2.1614027400001648e-01 0.0000000000000000e+00  3.0449323974036189e-02 2.2648537332296453e-01 0.0000000000000000e+00  2.8764017802032582e-02 2.3628484974187960e-01 0.0000000000000000e+00  2.7009412674750766e-02 2.4551509549901512e-01 0.0000000000000000e+00  2.5189735960600486e-02 2.5415387414441137e-01 0.0000000000000000e+00  2.3309371768999446e-02 2.6218037411078915e-01 0.0000000000000000e+00  2.1372850394445302e-02 2.6957525885450667e-01 0.0000000000000000e+00  1.9384837407201216e-02 2.7632071344214354e-01 0.0000000000000000e+00  1.7350122417174568e-02 2.8240048747071872e-01 0.0000000000000000e+00  1.5273607538280639e-02 2.8779993421832645e-01 0.0000000000000000e+00  1.3160295581238659e-02 2.9250604593099322e-01 0.0000000000000000e+00  1.1015278003363639e-02 2.9650748516084852e-01 0.0000000000000000e+00  8.8437226444714571e-03 2.9979461208017749e-01 0.0000000000000000e+00  6.6508612785106114e-03 3.0235950770561304e-01 0.0000000000000000e+00  4.4419770109549528e-03 3.0419599297655470e-01 0.0000000000000000e+00  2.2223915523568905e-03 3.0529964364189355e-01 0.0000000000000000e+00  -2.5476012564247729e-06 3.0566780091919954e-01 0.0000000000000000e+00  -2.2274800502387416e-03 3.0529957790072276e-01 0.0000000000000000e+00  -4.4470454043918535e-03 3.0419586169078577e-01 0.0000000000000000e+00  -6.6558961961249268e-03 3.0235931126944421e-01 0.0000000000000000e+00  -8.8487107626009712e-03 2.9979435108756952e-01 0.0000000000000000e+00  -1.1020206065834313e-02 2.9650716040879999e-01 0.0000000000000000e+00  -1.3165150419865186e-02 2.9250565842405124e-01 0.0000000000000000e+00  -1.5278376094361043e-02 2.8779948517445142e-01 0.0000000000000000e+00  -1.7354791764297092e-02 2.8239997832868058e-01 0.0000000000000000e+00  -1.9389394775740625e-02 2.7632014587066384e-01 0.0000000000000000e+00  -2.1377283198217800e-02 2.6957463476342608e-01 0.0000000000000000e+00  -2.3313667634652143e-02 2.6217969566461530e-01 0.0000000000000000e+00  -2.5193882760459693e-02 2.5415314377870468e-01 0.0000000000000000e+00  -2.7013398564038310e-02 2.4551431594018794e-01 0.0000000000000000e+00  -2.8767831261615626e-02 2.3628402403116416e-01 0.0000000000000000e+00  -3.0452953860207108e-02 2.2648450484552890e-01 0.0000000000000000e+00  -3.2064706343286280e-02 2.1613936652053267e-01 0.0000000000000000e+00  -3.3599205454669490e-02 2.0527353166472173e-01 0.0000000000000000e+00  -3.5052754057079721e-02 1.9391317731918459e-01 0.0000000000000000e+00  -3.6421850042836885e-02 1.8208567189659586e-01 0.0000000000000000e+00  -3.7703194775139122e-02 1.6981950924969036e-01 0.0000000000000000e+00  -3.8893701039387184e-02 1.5714424002748806e-01 0.0000000000000000e+00  -3.9990500484932141e-02 1.4409040048367289e-01 0.0000000000000000e+00  -4.0990950538365011e-02 1.3068943890682663e-01 0.0000000000000000e+00  -4.1892640769866880e-02 1.1697363984626161e-01 0.0000000000000000e+00  -4.2693398693928866e-02 1.0297604630909735e-01 0.0000000000000000e+00  -4.3391294984739308e-02 8.8730380102019987e-02 0.0000000000000000e+00  -4.3984648085320086e-02 7.4270960480769518e-02 0.0000000000000000e+00  -4.4472028192941992e-02 5.9632621244451886e-02 0.0000000000000000e+00  -4.4852260634539107e-02 4.4850626363048339e-02 0.0000000000000000e+00  -4.5124428773030613e-02 2.9960584208353215e-02 0.0000000000000000e+00  -4.5287877498948720e-02 1.4998360402606506e-02 0.0000000000000000e+00  -4.5342210199404639e-02 3.7434066748375788e-17 0.0000000000000000e+00  6.0286224941062921e-02 0.0000000000000000e+00 0.0000000000000000e+00  6.0213790499544541e-02 1.4871402341225092e-02 0.0000000000000000e+00  5.9996243184770467e-02 2.9706878557140933e-02 0.0000000000000000e+00  5.9634112721236684e-02 4.4470721006099154e-02 0.0000000000000000e+00  5.9128275722018897e-02 5.9127383449179199e-02 0.0000000000000000e+00  5.8479957543666500e-02 7.3641572227607213e-02 0.0000000000000000e+00  5.7690726483818768e-02 8.7978331738635202e-02 0.0000000000000000e+00  5.6762489189338121e-02 1.0210313021901667e-01 0.0000000000000000e+00  5.5697486025747180e-02 1.1598194420543620e-01 0.0000000000000000e+00  5.4498285885318201e-02 1.2958134134955471e-01 0.0000000000000000e+00  5.3167780226718996e-02 1.4286856149240557e-01 0.0000000000000000e+00  5.1709176297898098e-02 1.5581159591658050e-01 0.0000000000000000e+00  5.0125989551604619e-02 1.6837926466446679e-01 0.0000000000000000e+00  4.8422035279930817e-02 1.8054129178512590e-01 0.0000000000000000e+00  4.6601419497859981e-02 1.9226837835759142e-01 0.0000000000000000e+00  4.4668529105888172e-02 2.0353227313191530e-01 0.0000000000000000e+00  4.2628021361388622e-02 2.1430584062811892e-01 0.0000000000000000e+00  4.0484812688317405e-02 2.2456312653533156e-01 0.0000000000000000e+00  3.8244066855171004e-02 2.3427942025750789e-01 0.0000000000000000e+00  3.5911182551736157e-02 2.4343131445757710e-01 0.0000000000000000e+00  3.3491780396005297e-02 2.5199676145821487e-01 0.0000000000000000e+00  3.0991689403583704e-02 2.5995512636446694e-01 0.0000000000000000e+00  2.8416932