<?xml version="1.0"?>
<VTKFile type="UnstructuredGrid"  version="0.1"  >
<UnstructuredGrid>
<Piece  NumberOfPoints="81" NumberOfCells="128">
<Points>
<DataArray  type="Float64"  NumberOfComponents="3"  format="ascii">0 0 0  0.125 0 0  0.25 0 0  0.375 0 0  0.5 0 0  0.625 0 0  0.75 0 0  0.875 0 0  1 0 0  0 0.125 0  0.125 0.125 0  0.25 0.125 0  0.375 0.125 0  0.5 0.125 0  0.625 0.125 0  0.75 0.125 0  0.875 0.125 0  1 0.125 0  0 0.25 0  0.125 0.25 0  0.25 0.25 0  0.375 0.25 0  0.5 0.25 0  0.625 0.25 0  0.75 0.25 0  0.875 0.25 0  1 0.25 0  0 0.375 0  0.125 0.375 0  0.25 0.375 0  0.375 0.375 0  0.5 0.375 0  0.625 0.375 0  0.75 0.375 0  0.875 0.375 0  1 0.375 0  0 0.5 0  0.125 0.5 0  0.25 0.5 0  0.375 0.5 0  0.5 0.5 0  0.625 0.5 0  0.75 0.5 0  0.875 0.5 0  1 0.5 0  0 0.625 0  0.125 0.625 0  0.25 0.625 0  0.375 0.625 0  0.5 0.625 0  0.625 0.625 0  0.75 0.625 0  0.875 0.625 0  1 0.625 0  0 0.75 0  0.125 0.75 0  0.25 0.75 0  0.375 0.75 0  0.5 0.75 0  0.625 0.75 0  0.75 0.75 0  0.875 0.75 0  1 0.75 0  0 0.875 0  0.125 0.875 0  0.25 0.875 0  0.375 0.875 0  0.5 0.875 0  0.625 0.875 0  0.75 0.875 0  0.875 0.875 0  1 0.875 0  0 1 0  0.125 1 0  0.25 1 0  0.375 1 0  0.5 1 0  0.625 1 0  0.75 1 0  0.875 1 0  1 1 0  </DataArray>
</Points>
<Cells>
<DataArray  type="UInt32"  Name="connectivity"  format="ascii">0 1 10  0 9 10  1 2 11  1 10 11  2 3 12  2 11 12  3 4 13  3 12 13  4 5 14  4 13 14  5 6 15  5 14 15  6 7 16  6 15 16  7 8 17  7 16 17  9 10 19  9 18 19  10 11 20  10 19 20  11 12 21  11 20 21  12 13 22  12 21 22  13 14 23  13 22 23  14 15 24  14 23 24  15 16 25  15 24 25  16 17 26  16 25 26  18 19 28  18 27 28  19 20 29  19 28 29  20 21 30  20 29 30  21 22 31  21 30 31  22 23 32  22 31 32  23 24 33  23 32 33  24 25 34  24 33 34  25 26 35  25 34 35  27 28 37  27 36 37  28 29 38  28 37 38  29 30 39  29 38 39  30 31 40  30 39 40  31 32 41  31 40 41  32 33 42  32 41 42  33 34 43  33 42 43  34 35 44  34 43 44  36 37 46  36 45 46  37 38 47  37 46 47  38 39 48  38 47 48  39 40 49  39 48 49  40 41 50  40 49 50  41 42 51  41 50 51  42 43 52  42 51 52  43 44 53  43 52 53  45 46 55  45 54 55  46 47 56  46 55 56  47 48 57  47 56 57  48 49 58  48 57 58  49 50 59  49 58 59  50 51 60  50 59 60  51 52 61  51 60 61  52 53 62  52 61 62  54 55 64  54 63 64  55 56 65  55 64 65  56 57 66  56 65 66  57 58 67  57 66 67  58 59 68  58 67 68  59 60 69  59 68 69  60 61 70  60 69 70  61 62 71  61 70 71  63 64 73  63 72 73  64 65 74  64 73 74  65 66 75  65 74 75  66 67 76  66 75 76  67 68 77  67 76 77  68 69 78  68 77 78  69 70 79  69 78 79  70 71 80  70 79 80  </DataArray>
<DataArray  type="UInt32"  Name="offsets"  format="ascii">3 6 9 12 15 18 21 24 27 30 33 36 39 42 45 48 51 54 57 60 63 66 69 72 75 78 81 84 87 90 93 96 99 102 105 108 111 114 117 120 123 126 129 132 135 138 141 144 147 150 153 156 159 162 165 168 171 174 177 180 183 186 189 192 195 198 201 204 207 210 213 216 219 222 225 228 231 234 237 240 243 246 249 252 255 258 261 264 267 270 273 276 279 282 285 288 291 294 297 300 303 306 309 312 315 318 321 324 327 330 333 336 339 342 345 348 351 354 357 360 363 366 369 372 375 378 381 384 </DataArray>
<DataArray  type="UInt8"  Name="types"  format="ascii">5 5 5 5 5 5 5 5 5 5 5 5 5 5 5 5 5 5 5 5 5 5 5 5 5 5 5 5 5 5 5 5 5 5 5 5 5 5 5 5 5 5 5 5 5 5 5 5 5 5 5 5 5 5 5 5 5 5 5 5 5 5 5 5 5 5 5 5 5 5 5 5 5 5 5 5 5 5 5 5 5 5 5 5 5 5 5 5 5 5 5 5 5 5 5 5 5 5 5 5 5 5 5 5 5 5 5 5 5 5 5 5 5 5 5 5 5 5 5 5 5 5 5 5 5 5 5 5 </DataArray>
</Cells>
<PointData  Vectors="f_44099-0"> 
<DataArray  type="Float64"  Name="f_44099-0"  NumberOfComponents="3" format="ascii">0.0000000000000000e+00 0.0000000000000000e+00 0.0000000000000000e+00  0.0000000000000000e+00 1.1825568406654526e-01 0.0000000000000000e+00  0.0000000000000000e+00 2.1850801222440450e-01 0.0000000000000000e+00  0.0000000000000000e+00 2.8549447630116148e-01 0.0000000000000000e+00  0.0000000000000000e+00 3.0901699437493885e-01 0.0000000000000000e+00  -0.0000000000000000e+00 2.8549447630116148e-01 0.0000000000000000e+00  -0.0000000000000000e+00 2.1850801222440452e-01 0.0000000000000000e+00  -0.0000000000000000e+00 1.1825568406654530e-01 0.0000000000000000e+00  -0.0000000000000000e+00 3.7843667304340458e-17 0.0000000000000000e+00  1.1825568406654524e-01 0.0000000000000000e+00 0.0000000000000000e+00  1.0927367758588037e-01 1.0908502013565778e-01 0.0000000000000000e+00  8.3523058466622668e-02 2.0148887105878499e-01 0.0000000000000000e+00  4.5005080527822490e-02 2.6321223582054903e-01 0.0000000000000000e+00  -3.8508522400753178e-04 2.8486092121660356e-01 0.0000000000000000e+00  -4.5712952629331213e-02 2.6313894822453826e-01 0.0000000000000000e+00  -8.4052622738541111e-02 2.0135701705331260e-01 0.0000000000000000e+00  -1.0954421795805810e-01 1.0893145785392795e-01 0.0000000000000000e+00  -1.1825568406654526e-01 3.4962989657646727e-17 0.0000000000000000e+00  2.1850801222440450e-01 0.0000000000000000e+00 0.0000000000000000e+00  2.0177955539539461e-01 8.3227715259222318e-02 0.0000000000000000e+00  1.5420254848497039e-01 1.5374004597530311e-01 0.0000000000000000e+00  8.3098568424050154e-02 2.0083844095420916e-01 0.0000000000000000e+00  -6.8212699134596649e-04 2.1734532350812236e-01 0.0000000000000000e+00  -8.4357623997944900e-02 2.0074556944399818e-01 0.0000000000000000e+00  -1.5516124335267351e-01 1.5357365872001313e-01 0.0000000000000000e+00  -2.0229099441672399e-01 8.3036995257385435e-02 0.0000000000000000e+00  -2.1850801222440450e-01 2.6759513775866771e-17 0.0000000000000000e+00  2.8549447630116148e-01 0.0000000000000000e+00 0.0000000000000000e+00  2.6355052954351982e-01 4.4676065146489467e-02 0.0000000000000000e+00  2.0138289506730861e-01 8.2563140377418728e-02 0.0000000000000000e+00  1.0853012896332112e-01 1.0788251901891871e-01 0.0000000000000000e+00  -8.6199895513415579e-04 1.1675387265951565e-01 0.0000000000000000e+00  -1.1012494773320419e-01 1.0781985440243422e-01 0.0000000000000000e+00  -2.0260772151737214e-01 8.2449540738604069e-02 0.0000000000000000e+00  -2.6421591851296694e-01 4.4539308819991408e-02 0.0000000000000000e+00  -2.8549447630116148e-01 1.4482144497307533e-17 0.0000000000000000e+00  3.0901699437493896e-01 0.0000000000000000e+00 0.0000000000000000e+00  2.8519547276935181e-01 -6.9120675019085820e-04 0.0000000000000000e+00  2.1789313087799630e-01 -1.2088028767476729e-03 0.0000000000000000e+00  1.1742347155035623e-01 -1.5250716627555130e-03 0.0000000000000000e+00  -9.2310035126004942e-04 -1.6326781756490051e-03 0.0000000000000000e+00  -1.1913239695365815e-01 -1.5268766699563518e-03 0.0000000000000000e+00  -2.1920851412613304e-01 -1.2171158915322464e-03 0.0000000000000000e+00  -2.8591283753545749e-01 -7.2151172246061074e-04 0.0000000000000000e+00  -3.0901699437493896e-01 2.3172563016128942e-33 0.0000000000000000e+00  2.8549447630116148e-01 -0.0000000000000000e+00 0.0000000000000000e+00  2.6341990470729804e-01 -4.5956740377175662e-02 0.0000000000000000e+00  2.0122056155192672e-01 -8.4812117806085899e-02 0.0000000000000000e+00  1.0842239075379931e-01 -1.1072748408456844e-01 0.0000000000000000e+00  -8.6380396233394930e-04 -1.1980199584449872e-01 0.0000000000000000e+00  -1.1001976883828540e-01 -1.1066737878268915e-01 0.0000000000000000e+00  -2.0244566271698836e-01 -8.4712381324050789e-02 0.0000000000000000e+00  -2.6408269808132706e-01 -4.5874289196070166e-02 0.0000000000000000e+00  -2.8549447630116148e-01 -1.4482144497307530e-17 0.0000000000000000e+00  2.1850801222440452e-01 -0.0000000000000000e+00 0.0000000000000000e+00  2.0154162884279173e-01 -8.4210637899047550e-02 0.0000000000000000e+00  1.5390980164066903e-01 -1.5549738627332868e-01 0.0000000000000000e+00  8.2904034546746400e-02 -2.0308271362530017e-01 0.0000000000000000e+00  -6.9044000612901999e-04 -2.1975632149600721e-01 0.0000000000000000e+00  -8.4176953277417074e-02 -2.0299011683008908e-01 0.0000000000000000e+00  -1.5487573865951235e-01 -1.5533824116918191e-01 0.0000000000000000e+00  -2.0205147408039489e-01 -8.4057340813844819e-02 0.0000000000000000e+00  -2.1850801222440452e-01 -2.6759513775866765e-17 0.0000000000000000e+00  1.1825568406654530e-01 -0.0000000000000000e+00 0.0000000000000000e+00  1.0899707707187030e-01 -1.0960983717600042e-01 0.0000000000000000e+00  8.3195010417892443e-02 -2.0247560620620278e-01 0.0000000000000000e+00  4.4783096567836807e-02 -2.6449687499572599e-01 0.0000000000000000e+00  -4.1539019627597856e-04 -2.8624738908820507e-01 0.0000000000000000e+00  -4.5545273814735415e-02 -2.6442099180429790e-01 0.0000000000000000e+00  -8.3761997606442415e-02 -2.0234215841700545e-01 0.0000000000000000e+00  -1.0928040790345221e-01 -1.0946906535367609e-01 0.0000000000000000e+00  -1.1825568406654530e-01 -3.4962989657646727e-17 0.0000000000000000e+00  3.7843667304340458e-17 -0.0000000000000000e+00 0.0000000000000000e+00  3.4962989657646727e-17 -1.1825568406654526e-01 0.0000000000000000e+00  2.6759513775866771e-17 -2.1850801222440450e-01 0.0000000000000000e+00  1.4482144497307533e-17 -2.8549447630116148e-01 0.0000000000000000e+00  2.3172563016128942e-33 -3.0901699437493890e-01 0.0000000000000000e+00  -1.4482144497307530e-17 -2.8549447630116148e-01 0.0000000000000000e+00  -2.6759513775866765e-17 -2.1850801222440452e-01 0.0000000000000000e+00  -3.4962989657646727e-17 -1.1825568406654530e-01 0.0000000000000000e+00  -3.7843667304340458e-17 -3.7843667304340458e-17 0.0000000000000000e+00  </DataArray> 
</PointData> 
</Piece>
</UnstructuredGrid>
</VTKFile>