<?xml version="1.0"?>
<VTKFile type="UnstructuredGrid"  version="0.1"  >
<UnstructuredGrid>
<Piece  NumberOfPoints="1089" NumberOfCells="2048">
<Points>
<DataArray  type="Float64"  NumberOfComponents="3"  format="ascii">0 0 0  0.03125 0 0  0.0625 0 0  0.09375 0 0  0.125 0 0  0.15625 0 0  0.1875 0 0  0.21875 0 0  0.25 0 0  0.28125 0 0  0.3125 0 0  0.34375 0 0  0.375 0 0  0.40625 0 0  0.4375 0 0  0.46875 0 0  0.5 0 0  0.53125 0 0  0.5625 0 0  0.59375 0 0  0.625 0 0  0.65625 0 0  0.6875 0 0  0.71875 0 0  0.75 0 0  0.78125 0 0  0.8125 0 0  0.84375 0 0  0.875 0 0  0.90625 0 0  0.9375 0 0  0.96875 0 0  1 0 0  0 0.03125 0  0.03125 0.03125 0  0.0625 0.03125 0  0.09375 0.03125 0  0.125 0.03125 0  0.15625 0.03125 0  0.1875 0.03125 0  0.21875 0.03125 0  0.25 0.03125 0  0.28125 0.03125 0  0.3125 0.03125 0  0.34375 0.03125 0  0.375 0.03125 0  0.40625 0.03125 0  0.4375 0.03125 0  0.46875 0.03125 0  0.5 0.03125 0  0.53125 0.03125 0  0.5625 0.03125 0  0.59375 0.03125 0  0.625 0.03125 0  0.65625 0.03125 0  0.6875 0.03125 0  0.71875 0.03125 0  0.75 0.03125 0  0.78125 0.03125 0  0.8125 0.03125 0  0.84375 0.03125 0  0.875 0.03125 0  0.90625 0.03125 0  0.9375 0.03125 0  0.96875 0.03125 0  1 0.03125 0  0 0.0625 0  0.03125 0.0625 0  0.0625 0.0625 0  0.09375 0.0625 0  0.125 0.0625 0  0.15625 0.0625 0  0.1875 0.0625 0  0.21875 0.0625 0  0.25 0.0625 0  0.28125 0.0625 0  0.3125 0.0625 0  0.34375 0.0625 0  0.375 0.0625 0  0.40625 0.0625 0  0.4375 0.0625 0  0.46875 0.0625 0  0.5 0.0625 0  0.53125 0.0625 0  0.5625 0.0625 0  0.59375 0.0625 0  0.625 0.0625 0  0.65625 0.0625 0  0.6875 0.0625 0  0.71875 0.0625 0  0.75 0.0625 0  0.78125 0.0625 0  0.8125 0.0625 0  0.84375 0.0625 0  0.875 0.0625 0  0.90625 0.0625 0  0.9375 0.0625 0  0.96875 0.0625 0  1 0.0625 0  0 0.09375 0  0.03125 0.09375 0  0.0625 0.09375 0  0.09375 0.09375 0  0.125 0.09375 0  0.15625 0.09375 0  0.1875 0.09375 0  0.21875 0.09375 0  0.25 0.09375 0  0.28125 0.09375 0  0.3125 0.09375 0  0.34375 0.09375 0  0.375 0.09375 0  0.40625 0.09375 0  0.4375 0.09375 0  0.46875 0.09375 0  0.5 0.09375 0  0.53125 0.09375 0  0.5625 0.09375 0  0.59375 0.09375 0  0.625 0.09375 0  0.65625 0.09375 0  0.6875 0.09375 0  0.71875 0.09375 0  0.75 0.09375 0  0.78125 0.09375 0  0.8125 0.09375 0  0.84375 0.09375 0  0.875 0.09375 0  0.90625 0.09375 0  0.9375 0.09375 0  0.96875 0.09375 0  1 0.09375 0  0 0.125 0  0.03125 0.125 0  0.0625 0.125 0  0.09375 0.125 0  0.125 0.125 0  0.15625 0.125 0  0.1875 0.125 0  0.21875 0.125 0  0.25 0.125 0  0.28125 0.125 0  0.3125 0.125 0  0.34375 0.125 0  0.375 0.125 0  0.40625 0.125 0  0.4375 0.125 0  0.46875 0.125 0  0.5 0.125 0  0.53125 0.125 0  0.5625 0.125 0  0.59375 0.125 0  0.625 0.125 0  0.65625 0.125 0  0.6875 0.125 0  0.71875 0.125 0  0.75 0.125 0  0.78125 0.125 0  0.8125 0.125 0  0.84375 0.125 0  0.875 0.125 0  0.90625 0.125 0  0.9375 0.125 0  0.96875 0.125 0  1 0.125 0  0 0.15625 0  0.03125 0.15625 0  0.0625 0.15625 0  0.09375 0.15625 0  0.125 0.15625 0  0.15625 0.15625 0  0.1875 0.15625 0  0.21875 0.15625 0  0.25 0.15625 0  0.28125 0.15625 0  0.3125 0.15625 0  0.34375 0.15625 0  0.375 0.15625 0  0.40625 0.15625 0  0.4375 0.15625 0  0.46875 0.15625 0  0.5 0.15625 0  0.53125 0.15625 0  0.5625 0.15625 0  0.59375 0.15625 0  0.625 0.15625 0  0.65625 0.15625 0  0.6875 0.15625 0  0.71875 0.15625 0  0.75 0.15625 0  0.78125 0.15625 0  0.8125 0.15625 0  0.84375 0.15625 0  0.875 0.15625 0  0.90625 0.15625 0  0.9375 0.15625 0  0.96875 0.15625 0  1 0.15625 0  0 0.1875 0  0.03125 0.1875 0  0.0625 0.1875 0  0.09375 0.1875 0  0.125 0.1875 0  0.15625 0.1875 0  0.1875 0.1875 0  0.21875 0.1875 0  0.25 0.1875 0  0.28125 0.1875 0  0.3125 0.1875 0  0.34375 0.1875 0  0.375 0.1875 0  0.40625 0.1875 0  0.4375 0.1875 0  0.46875 0.1875 0  0.5 0.1875 0  0.53125 0.1875 0  0.5625 0.1875 0  0.59375 0.1875 0  0.625 0.1875 0  0.65625 0.1875 0  0.6875 0.1875 0  0.71875 0.1875 0  0.75 0.1875 0  0.78125 0.1875 0  0.8125 0.1875 0  0.84375 0.1875 0  0.875 0.1875 0  0.90625 0.1875 0  0.9375 0.1875 0  0.96875 0.1875 0  1 0.1875 0  0 0.21875 0  0.03125 0.21875 0  0.0625 0.21875 0  0.09375 0.21875 0  0.125 0.21875 0  0.15625 0.21875 0  0.1875 0.21875 0  0.21875 0.21875 0  0.25 0.21875 0  0.28125 0.21875 0  0.3125 0.21875 0  0.34375 0.21875 0  0.375 0.21875 0  0.40625 0.21875 0  0.4375 0.21875 0  0.46875 0.21875 0  0.5 0.21875 0  0.53125 0.21875 0  0.5625 0.21875 0  0.59375 0.21875 0  0.625 0.21875 0  0.65625 0.21875 0  0.6875 0.21875 0  0.71875 0.21875 0  0.75 0.21875 0  0.78125 0.21875 0  0.8125 0.21875 0  0.84375 0.21875 0  0.875 0.21875 0  0.90625 0.21875 0  0.9375 0.21875 0  0.96875 0.21875 0  1 0.21875 0  0 0.25 0  0.03125 0.25 0  0.0625 0.25 0  0.09375 0.25 0  0.125 0.25 0  0.15625 0.25 0  0.1875 0.25 0  0.21875 0.25 0  0.25 0.25 0  0.28125 0.25 0  0.3125 0.25 0  0.34375 0.25 0  0.375 0.25 0  0.40625 0.25 0  0.4375 0.25 0  0.46875 0.25 0  0.5 0.25 0  0.53125 0.25 0  0.5625 0.25 0  0.59375 0.25 0  0.625 0.25 0  0.65625 0.25 0  0.6875 0.25 0  0.71875 0.25 0  0.75 0.25 0  0.78125 0.25 0  0.8125 0.25 0  0.84375 0.25 0  0.875 0.25 0  0.90625 0.25 0  0.9375 0.25 0  0.96875 0.25 0  1 0.25 0  0 0.28125 0  0.03125 0.28125 0  0.0625 0.28125 0  0.09375 0.28125 0  0.125 0.28125 0  0.15625 0.28125 0  0.1875 0.28125 0  0.21875 0.28125 0  0.25 0.28125 0  0.28125 0.28125 0  0.3125 0.28125 0  0.34375 0.28125 0  0.375 0.28125 0  0.40625 0.28125 0  0.4375 0.28125 0  0.46875 0.28125 0  0.5 0.28125 0  0.53125 0.28125 0  0.5625 0.28125 0  0.59375 0.28125 0  0.625 0.28125 0  0.65625 0.28125 0  0.6875 0.28125 0  0.71875 0.28125 0  0.75 0.28125 0  0.78125 0.28125 0  0.8125 0.28125 0  0.84375 0.28125 0  0.875 0.28125 0  0.90625 0.28125 0  0.9375 0.28125 0  0.96875 0.28125 0  1 0.28125 0  0 0.3125 0  0.03125 0.3125 0  0.0625 0.3125 0  0.09375 0.3125 0  0.125 0.3125 0  0.15625 0.3125 0  0.1875 0.3125 0  0.21875 0.3125 0  0.25 0.3125 0  0.28125 0.3125 0  0.3125 0.3125 0  0.34375 0.3125 0  0.375 0.3125 0  0.40625 0.3125 0  0.4375 0.3125 0  0.46875 0.3125 0  0.5 0.3125 0  0.53125 0.3125 0  0.5625 0.3125 0  0.59375 0.3125 0  0.625 0.3125 0  0.65625 0.3125 0  0.6875 0.3125 0  0.71875 0.3125 0  0.75 0.3125 0  0.78125 0.3125 0  0.8125 0.3125 0  0.84375 0.3125 0  0.875 0.3125 0  0.90625 0.3125 0  0.9375 0.3125 0  0.96875 0.3125 0  1 0.3125 0  0 0.34375 0  0.03125 0.34375 0  0.0625 0.34375 0  0.09375 0.34375 0  0.125 0.34375 0  0.15625 0.34375 0  0.1875 0.34375 0  0.21875 0.34375 0  0.25 0.34375 0  0.28125 0.34375 0  0.3125 0.34375 0  0.34375 0.34375 0  0.375 0.34375 0  0.40625 0.34375 0  0.4375 0.34375 0  0.46875 0.34375 0  0.5 0.34375 0  0.53125 0.34375 0  0.5625 0.34375 0  0.59375 0.34375 0  0.625 0.34375 0  0.65625 0.34375 0  0.6875 0.34375 0  0.71875 0.34375 0  0.75 0.34375 0  0.78125 0.34375 0  0.8125 0.34375 0  0.84375 0.34375 0  0.875 0.34375 0  0.90625 0.34375 0  0.9375 0.34375 0  0.96875 0.34375 0  1 0.34375 0  0 0.375 0  0.03125 0.375 0  0.0625 0.375 0  0.09375 0.375 0  0.125 0.375 0  0.15625 0.375 0  0.1875 0.375 0  0.21875 0.375 0  0.25 0.375 0  0.28125 0.375 0  0.3125 0.375 0  0.34375 0.375 0  0.375 0.375 0  0.40625 0.375 0  0.4375 0.375 0  0.46875 0.375 0  0.5 0.375 0  0.53125 0.375 0  0.5625 0.375 0  0.59375 0.375 0  0.625 0.375 0  0.65625 0.375 0  0.6875 0.375 0  0.71875 0.375 0  0.75 0.375 0  0.78125 0.375 0  0.8125 0.375 0  0.84375 0.375 0  0.875 0.375 0  0.90625 0.375 0  0.9375 0.375 0  0.96875 0.375 0  1 0.375 0  0 0.40625 0  0.03125 0.40625 0  0.0625 0.40625 0  0.09375 0.40625 0  0.125 0.40625 0  0.15625 0.40625 0  0.1875 0.40625 0  0.21875 0.40625 0  0.25 0.40625 0  0.28125 0.40625 0  0.3125 0.40625 0  0.34375 0.40625 0  0.375 0.40625 0  0.40625 0.40625 0  0.4375 0.40625 0  0.46875 0.40625 0  0.5 0.40625 0  0.53125 0.40625 0  0.5625 0.40625 0  0.59375 0.40625 0  0.625 0.40625 0  0.65625 0.40625 0  0.6875 0.40625 0  0.71875 0.40625 0  0.75 0.40625 0  0.78125 0.40625 0  0.8125 0.40625 0  0.84375 0.40625 0  0.875 0.40625 0  0.90625 0.40625 0  0.9375 0.40625 0  0.96875 0.40625 0  1 0.40625 0  0 0.4375 0  0.03125 0.4375 0  0.0625 0.4375 0  0.09375 0.4375 0  0.125 0.4375 0  0.15625 0.4375 0  0.1875 0.4375 0  0.21875 0.4375 0  0.25 0.4375 0  0.28125 0.4375 0  0.3125 0.4375 0  0.34375 0.4375 0  0.375 0.4375 0  0.40625 0.4375 0  0.4375 0.4375 0  0.46875 0.4375 0  0.5 0.4375 0  0.53125 0.4375 0  0.5625 0.4375 0  0.59375 0.4375 0  0.625 0.4375 0  0.65625 0.4375 0  0.6875 0.4375 0  0.71875 0.4375 0  0.75 0.4375 0  0.78125 0.4375 0  0.8125 0.4375 0  0.84375 0.4375 0  0.875 0.4375 0  0.90625 0.4375 0  0.9375 0.4375 0  0.96875 0.4375 0  1 0.4375 0  0 0.46875 0  0.03125 0.46875 0  0.0625 0.46875 0  0.09375 0.46875 0  0.125 0.46875 0  0.15625 0.46875 0  0.1875 0.46875 0  0.21875 0.46875 0  0.25 0.46875 0  0.28125 0.46875 0  0.3125 0.46875 0  0.34375 0.46875 0  0.375 0.46875 0  0.40625 0.46875 0  0.4375 0.46875 0  0.46875 0.46875 0  0.5 0.46875 0  0.53125 0.46875 0  0.5625 0.46875 0  0.59375 0.46875 0  0.625 0.46875 0  0.65625 0.46875 0  0.6875 0.46875 0  0.71875 0.46875 0  0.75 0.46875 0  0.78125 0.46875 0  0.8125 0.46875 0  0.84375 0.46875 0  0.875 0.46875 0  0.90625 0.46875 0  0.9375 0.46875 0  0.96875 0.46875 0  1 0.46875 0  0 0.5 0  0.03125 0.5 0  0.0625 0.5 0  0.09375 0.5 0  0.125 0.5 0  0.15625 0.5 0  0.1875 0.5 0  0.21875 0.5 0  0.25 0.5 0  0.28125 0.5 0  0.3125 0.5 0  0.34375 0.5 0  0.375 0.5 0  0.40625 0.5 0  0.4375 0.5 0  0.46875 0.5 0  0.5 0.5 0  0.53125 0.5 0  0.5625 0.5 0  0.59375 0.5 0  0.625 0.5 0  0.65625 0.5 0  0.6875 0.5 0  0.71875 0.5 0  0.75 0.5 0  0.78125 0.5 0  0.8125 0.5 0  0.84375 0.5 0  0.875 0.5 0  0.90625 0.5 0  0.9375 0.5 0  0.96875 0.5 0  1 0.5 0  0 0.53125 0  0.03125 0.53125 0  0.0625 0.53125 0  0.09375 0.53125 0  0.125 0.53125 0  0.15625 0.53125 0  0.1875 0.53125 0  0.21875 0.53125 0  0.25 0.53125 0  0.28125 0.53125 0  0.3125 0.53125 0  0.34375 0.53125 0  0.375 0.53125 0  0.40625 0.53125 0  0.4375 0.53125 0  0.46875 0.53125 0  0.5 0.53125 0  0.53125 0.53125 0  0.5625 0.53125 0  0.59375 0.53125 0  0.625 0.53125 0  0.65625 0.53125 0  0.6875 0.53125 0  0.71875 0.53125 0  0.75 0.53125 0  0.78125 0.531
[...]
<PointData  Vectors="f_132241-0"> 
<DataArray  type="Float64"  Name="f_132241-0"  NumberOfComponents="3" format="ascii">0.0000000000000000e+00 0.0000000000000000e+00 0.0000000000000000e+00  0.0000000000000000e+00 3.0288962101867427e-02 0.0000000000000000e+00  0.0000000000000000e+00 6.0286224941062921e-02 0.0000000000000000e+00  0.0000000000000000e+00 8.9702898478273146e-02 0.0000000000000000e+00  0.0000000000000000e+00 1.1825568406654526e-01 0.0000000000000000e+00  0.0000000000000000e+00 1.4566960277212387e-01 0.0000000000000000e+00  0.0000000000000000e+00 1.7168064357190194e-01 0.0000000000000000e+00  0.0000000000000000e+00 1.9603830592389629e-01 0.0000000000000000e+00  0.0000000000000000e+00 2.1850801222440450e-01 0.0000000000000000e+00  0.0000000000000000e+00 2.3887336691856190e-01 0.0000000000000000e+00  0.0000000000000000e+00 2.5693824050782826e-01 0.0000000000000000e+00  0.0000000000000000e+00 2.7252865838427459e-01 0.0000000000000000e+00  0.0000000000000000e+00 2.8549447630116148e-01 0.0000000000000000e+00  0.0000000000000000e+00 2.9571082634411217e-01 0.0000000000000000e+00  0.0000000000000000e+00 3.0307931947738792e-01 0.0000000000000000e+00  0.0000000000000000e+00 3.0752899308408738e-01 0.0000000000000000e+00  0.0000000000000000e+00 3.0901699437493885e-01 0.0000000000000000e+00  -0.0000000000000000e+00 3.0752899308408738e-01 0.0000000000000000e+00  -0.0000000000000000e+00 3.0307931947738792e-01 0.0000000000000000e+00  -0.0000000000000000e+00 2.9571082634411217e-01 0.0000000000000000e+00  -0.0000000000000000e+00 2.8549447630116148e-01 0.0000000000000000e+00  -0.0000000000000000e+00 2.7252865838427465e-01 0.0000000000000000e+00  -0.0000000000000000e+00 2.5693824050782832e-01 0.0000000000000000e+00  -0.0000000000000000e+00 2.3887336691856190e-01 0.0000000000000000e+00  -0.0000000000000000e+00 2.1850801222440452e-01 0.0000000000000000e+00  -0.0000000000000000e+00 1.9603830592389629e-01 0.0000000000000000e+00  -0.0000000000000000e+00 1.7168064357190194e-01 0.0000000000000000e+00  -0.0000000000000000e+00 1.4566960277212393e-01 0.0000000000000000e+00  -0.0000000000000000e+00 1.1825568406654530e-01 0.0000000000000000e+00  -0.0000000000000000e+00 8.9702898478273146e-02 0.0000000000000000e+00  -0.0000000000000000e+00 6.0286224941063025e-02 0.0000000000000000e+00  -0.0000000000000000e+00 3.0288962101867496e-02 0.0000000000000000e+00  -0.0000000000000000e+00 3.7843667304340458e-17 0.0000000000000000e+00  3.0288962101867427e-02 0.0000000000000000e+00 0.0000000000000000e+00  3.0144456125607563e-02 3.0143460871034804e-02 0.0000000000000000e+00  2.9708715268920657e-02 5.9995516856240390e-02 0.0000000000000000e+00  2.8986430241060727e-02 8.9269503139449952e-02 0.0000000000000000e+00  2.7984764842455226e-02 1.1768367738595932e-01 0.0000000000000000e+00  2.6713447061206673e-02 1.4496445440818609e-01 0.0000000000000000e+00  2.5184760882252976e-02 1.7084912928333248e-01 0.0000000000000000e+00  2.3413452108759183e-02 1.9508842940491200e-01 0.0000000000000000e+00  2.1416595119816934e-02 2.1744892238437902e-01 0.0000000000000000e+00  1.9213432258579383e-02 2.3771526700493031e-01 0.0000000000000000e+00  1.6825190397496380e-02 2.5569228839477837e-01 0.0000000000000000e+00  1.4274877523583746e-02 2.7120685834709313e-01 0.0000000000000000e+00  1.1587061745604026e-02 2.8410956302064128e-01 0.0000000000000000e+00  8.7876350523341581e-03 2.9427614210712472e-01 0.0000000000000000e+00  5.9035641956269305e-03 3.0160868567515436e-01 0.0000000000000000e+00  2.9626311488455889e-03 3.0603657720084820e-01 0.0000000000000000e+00  -6.8343318071074256e-06 3.0751717372345166e-01 0.0000000000000000e+00  -2.9762274520542080e-03 3.0603621658793284e-01 0.0000000000000000e+00  -5.9169437955934505e-03 3.0160796882681590e-01 0.0000000000000000e+00  -8.8006547555360085e-03 2.9427507786379048e-01 0.0000000000000000e+00  -1.1599580328530770e-02 2.8410816486561064e-01 0.0000000000000000e+00  -1.4286756647021503e-02 2.7120514470054768e-01 0.0000000000000000e+00  -1.6836295678374174e-02 2.5569028305545893e-01 0.0000000000000000e+00  -1.9223634597755078e-02 2.3771299979401150e-01 0.0000000000000000e+00  -2.1425772443742882e-02 2.1744643008044096e-01 0.0000000000000000e+00  -2.3421491789509086e-02 1.9508575712070242e-01 0.0000000000000000e+00  -2.5191563301857494e-02 1.7084633255667339e-01 0.0000000000000000e+00  -2.6718931196655929e-02 1.4496160254567234e-01 0.0000000000000000e+00  -2.7988877670933023e-02 1.1768085926482283e-01 0.0000000000000000e+00  -2.8989164215591882e-02 8.9266838628588377e-02 0.0000000000000000e+00  -2.9710146407515473e-02 5.9993184071235266e-02 0.0000000000000000e+00  -3.0144861917500401e-02 3.0141779322752749e-02 0.0000000000000000e+00  -3.0288962101867427e-02 3.7661439702543612e-17 0.0000000000000000e+00  6.0286224941062921e-02 0.0000000000000000e+00 0.0000000000000000e+00  5.9997343604450089e-02 2.9706784047404969e-02 0.0000000000000000e+00  5.9129796736017613e-02 5.9126257852881378e-02 0.0000000000000000e+00  5.7692211353749481e-02 8.7975807665746836e-02 0.0000000000000000e+00  5.5698611299711577e-02 1.1597787276981031e-01 0.0000000000000000e+00  5.3168319724552861e-02 1.4286290133056082e-01 0.0000000000000000e+00  5.0125779955236816e-02 1.6837203289426167e-01 0.0000000000000000e+00  4.6600341015334563e-02 1.9225962840866553e-01 0.0000000000000000e+00  4.2625987360251416e-02 2.1429565126809816e-01 0.0000000000000000e+00  3.8241018147058527e-02 2.3426788952564753e-01 0.0000000000000000e+00  3.3487681977763389e-02 2.5198400289754785e-01 0.0000000000000000e+00  2.8411772080598096e-02 2.6727337681427477e-01 0.0000000000000000e+00  2.3062186536670706e-02 2.7998876648438203e-01 0.0000000000000000e+00  1.7490458146886236e-02 2.9000771550749554e-01 0.0000000000000000e+00  1.1750258657154952e-02 2.9723373555364901e-01 0.0000000000000000e+00  5.8968822211088543e-03 3.0159723584120868e-01 0.0000000000000000e+00  -1.3286866062341263e-05 3.0305619351384561e-01 0.0000000000000000e+00  -5.9233170030983107e-03 3.0159655849132044e-01 0.0000000000000000e+00  -1.1776277441323644e-02 2.9723238891493109e-01 0.0000000000000000e+00  -1.7515786478783876e-02 2.9000571589696106e-01 0.0000000000000000e+00  -2.3086554408643486e-02 2.7998613888713403e-01 0.0000000000000000e+00  -2.8434915996436685e-02 2.6727015556149863e-01 0.0000000000000000e+00  -3.3509347366068358e-02 2.5198023269454933e-01 0.0000000000000000e+00  -3.8260962328400261e-02 2.3426362696800462e-01 0.0000000000000000e+00  -4.2643983386584809e-02 2.1429096707328976e-01 0.0000000000000000e+00  -4.6616182894378154e-02 1.9225461075068268e-01 0.0000000000000000e+00  -5.0139290117812867e-02 1.6836679253843700e-01 0.0000000000000000e+00  -5.3179360237097656e-02 1.4285757991354259e-01 0.0000000000000000e+00  -5.5707101591347730e-02 1.1597265703674293e-01 0.0000000000000000e+00  -5.7698157737130953e-02 8.7970956037067324e-02 0.0000000000000000e+00  -5.9133341462037463e-02 5.9122154949392582e-02 0.0000000000000000e+00  -5.9998831987933314e-02 2.9704051570329255e-02 0.0000000000000000e+00  -6.0286224941062914e-02 3.7116511848574120e-17 0.0000000000000000e+00  8.9702898478273160e-02 0.0000000000000000e+00 0.0000000000000000e+00  8.9272056838262392e-02 2.8983646687882808e-02 0.0000000000000000e+00  8.7980736300325588e-02 5.7687105502550545e-02 0.0000000000000000e+00  8.5841541973995239e-02 8.5834440952175017e-02 0.0000000000000000e+00  8.2875173994447562e-02 1.1315482780637166e-01 0.0000000000000000e+00  7.9110304933703746e-02 1.3938530251288350e-01 0.0000000000000000e+00  7.4583273793057125e-02 1.6427333111959530e-01 0.0000000000000000e+00  6.9337737743446343e-02 1.8757927143274214e-01 0.0000000000000000e+00  6.3424258011145235e-02 2.0907869771361431e-01 0.0000000000000000e+00  5.6899818288302796e-02 2.2856457099478283e-01 0.0000000000000000e+00  4.9827279626051713e-02 2.4584923781125878e-01 0.0000000000000000e+00  4.2274777464379035e-02 2.6076624009293897e-01 0.0000000000000000e+00  3.4315067037736319e-02 2.7317191980203154e-01 0.0000000000000000e+00  2.6024823761335886e-02 2.8294680337904105e-01 0.0000000000000000e+00  1.7483905526525952e-02 2.8999675293615329e-01 0.0000000000000000e+00  8.7745841275698663e-03 2.9425387326035890e-01 0.0000000000000000e+00  -1.9246706353460316e-05 2.9567716597706883e-01 0.0000000000000000e+00  -8.8128790035665854e-03 2.9425292462631836e-01 0.0000000000000000e+00  -1.7521606163510551e-02 2.8999486688049692e-01 0.0000000000000000e+00  -2.6061538624630679e-02 2.8294400265384556e-01 0.0000000000000000e+00  -3.4350411728159877e-02 2.7316823939182544e-01 0.0000000000000000e+00  -4.2308378001658681e-02 2.6076172835637862e-01 0.0000000000000000e+00  -4.9858776242088745e-02 2.4584395821525412e-01 0.0000000000000000e+00  -5.6928870006599235e-02 2.2855860467431710e-01 0.0000000000000000e+00  -6.3450548417694957e-02 2.0907214723463466e-01 0.0000000000000000e+00  -6.9360982554635145e-02 1.8757226638180213e-01 0.0000000000000000e+00  -7.4603231132071263e-02 1.6426603658625472e-01 0.0000000000000000e+00  -7.9126789666660521e-02 1.3937793235550747e-01 0.0000000000000000e+00  -8.2888077954794595e-02 1.1314766615092295e-01 0.0000000000000000e+00  -8.5850861682936694e-02 8.5827878193500809e-02 0.0000000000000000e+00  -8.7986605922890079e-02 5.7681699815730000e-02 0.0000000000000000e+00  -8.9274772353447801e-02 2.8980210052669386e-02 0.0000000000000000e+00  -8.9702898478273146e-02 3.6214131695553572e-17 0.0000000000000000e+00  1.1825568406654524e-01 0.0000000000000000e+00 0.0000000000000000e+00  1.1768687477345187e-01 2.7981228478073980e-02 0.0000000000000000e+00  1.1598402054860991e-01 5.5692110469430851e-02 0.0000000000000000e+00  1.1316366753116183e-01 8.2866130396024529e-02 0.0000000000000000e+00  1.0925301898997447e-01 1.0924176743616623e-01 0.0000000000000000e+00  1.0428980711390959e-01 1.3456514179073398e-01 0.0000000000000000e+00  9.8321898646471964e-02 1.5859245920928108e-01 0.0000000000000000e+00  9.1406825734490299e-02 1.8109237381388896e-01 0.0000000000000000e+00  8.3611231479670658e-02 2.0184822835839827e-01 0.0000000000000000e+00  7.5010230254328236e-02 2.2066014899208619e-01 0.0000000000000000e+00  6.5686686680787906e-02 2.3734697529980334e-01 0.0000000000000000e+00  5.5730419566127572e-02 2.5174800813624898e-01 0.0000000000000000e+00  4.5237338383194256e-02 2.6372455920244092e-01 0.0000000000000000e+00  3.4308520695801058e-02 2.7316128792652905e-01 0.0000000000000000e+00  2.3049239513234059e-02 2.7996731306520900e-01 0.0000000000000000e+00  1.1567950023053991e-02 2.8407708849538504e-01 0.0000000000000000e+00  -2.4754480846594737e-05 2.8545103486923179e-01 0.0000000000000000e+00  -1.1617207381143123e-02 2.8407592111803598e-01 0.0000000000000000e+00  -2.3097743953104100e-02 2.7996499217671389e-01 0.0000000000000000e+00  -3.4355776647282101e-02 2.7315784173191537e-01 0.0000000000000000e+00  -4.5282860081130083e-02 2.6372003124472909e-01 0.0000000000000000e+00  -5.5773735488730117e-02 2.5174245893836583e-01 0.0000000000000000e+00  -6.5727344582668240e-02 2.3734048484654305e-01 0.0000000000000000e+00  -7.5047803083614764e-02 2.2065282036495037e-01 0.0000000000000000e+00  -8.3645324569709550e-02 2.0184019301107081e-01 0.0000000000000000e+00  -9.1437085788795905e-02 1.8108379925118145e-01 0.0000000000000000e+00  -9.8348025166745470e-02 1.5858356027140769e-01 0.0000000000000000e+00  -1.0431156695665982e-01 1.3455619743168346e-01 0.0000000000000000e+00  -1.0927026437284980e-01 1.0923314586399438e-01 0.0000000000000000e+00  -1.1317635630989549e-01 8.2858326417483974e-02 0.0000000000000000e+00  -1.1599223370858705e-01 5.5685798910645609e-02 0.0000000000000000e+00  -1.1769082230913093e-01 2.7977316723676655e-02 0.0000000000000000e+00  -1.1825568406654526e-01 3.4962989657646727e-17 0.0000000000000000e+00  1.4566960277212387e-01 0.0000000000000000e+00 0.0000000000000000e+00  1.4496822384927857e-01 2.6709264912548571e-02 0.0000000000000000e+00  1.4287012495741769e-01 5.3160609532359668e-02 0.0000000000000000e+00  1.3939566761513653e-01 7.9099564572572820e-02 0.0000000000000000e+00  1.3457832274321202e-01 1.0427643810438356e-01 0.0000000000000000e+00  1.2846452549983683e-01 1.2844886390773530e-01 0.0000000000000000e+00  1.2111320503129455e-01 1.5138412097148626e-01 0.0000000000000000e+00  1.1259520748887654e-01 1.7286137841688137e-01 0.0000000000000000e+00  1.0299260993414847e-01 1.9267382862022397e-01 0.0000000000000000e+00  9.2397929313847299e-02 2.1063068466283330e-01 0.0000000000000000e+00  8.0913232210249056e-02 2.2655902203175649e-01 0.0000000000000000e+00  6.8649152977986044e-02 2.4030544697260406e-01 0.0000000000000000e+00  5.5723829327505442e-02 2.5173757577537109e-01 0.0000000000000000e+00  4.2261765480415235e-02 2.6074531106100901e-01 0.0000000000000000e+00  2.8392633828977165e-02 2.6724190300935163e-01 0.0000000000000000e+00  1.4250026660590671e-02 2.7116478546819145e-01 0.0000000000000000e+00  -2.9830004510873524e-05 2.7247617899986604e-01 0.0000000000000000e+00  -1.4309388053695951e-02 2.7116345513225254e-01 0.0000000000000000e+00  -2.8451101754138303e-02 2.6723925835921891e-01 0.0000000000000000e+00  -4.2318752294957275e-02 2.6074138475533520e-01 0.0000000000000000e+00  -5.5778759644538586e-02 2.5173241840579386e-01 0.0000000000000000e+00  -6.8701469097889420e-02 2.4029912918060861e-01 0.0000000000000000e+00  -8.0962400140239241e-02 2.2655163767858902e-01 0.0000000000000000e+00  -9.2443445624802029e-02 2.1062235540818222e-01 0.0000000000000000e+00  -1.0303400975322702e-01 1.9266471043698485e-01 0.0000000000000000e+00  -1.1263207395683474e-01 1.7285167080935360e-01 0.0000000000000000e+00  -1.2114518050986046e-01 1.5137407998782082e-01 0.0000000000000000e+00  -1.2849132457630105e-01 1.2843882042148771e-01 0.0000000000000000e+00  -1.3459974642159905e-01 1.0426682313173709e-01 0.0000000000000000e+00  -1.3941161672054517e-01 7.9090943063889918e-02 0.0000000000000000e+00  -1.4288060867693667e-01 5.3153722491101098e-02 0.0000000000000000e+00  -1.4497336000155397e-01 2.6705059062158268e-02 0.0000000000000000e+00  -1.4566960277212387e-01 3.3375134916622444e-17 0.0000000000000000e+00  1.7168064357190194e-01 0.0000000000000000e+00 0.0000000000000000e+00  1.7085340549375952e-01 2.5180040804086357e-02 0.0000000000000000e+00  1.6838020485163829e-01 5.0117049607737045e-02 0.0000000000000000e+00  1.6428503454282012e-01 7.4571087919405601e-02 0.0000000000000000e+00  1.5860732695313198e-01 9.8306711792462712e-02 0.0000000000000000e+00  1.5140178270829074e-01 1.2109540104069955e-01 0.0000000000000000e+00  1.4273782815054778e-01 1.4271774206195911e-01 0.0000000000000000e+00  1.3269893936922064e-01 1.6296553890382448e-01 0.0000000000000000e+00  1.2138183376235892e-01 1.8164382019667985e-01 0.0000000000000000e+00  1.0889553660712752e-01 1.9857271993161685e-01 0.0000000000000000e+00  9.5360330592667908e-02 2.1358921261257555e-01 0.0000000000000000e+00  8.0906597664111318e-02 2.2654868564834185e-01 0.0000000000000000e+00  6.5673563883120123e-02 2.3732633382061474e-01 0.0000000000000000e+00  4.9807959167433101e-02 2.4581836251124295e-01 0.0000000000000000e+00  3.3462604717871006e-02 2.5194298823353356e-01 0.0000000000000000e+00  1.6794941700400079e-02 2.5564122694695268e-01 0.0000000000000000e+00  -3.4484655982608067e-05 2.5687746265365341e-01 0.0000000000000000e+00  -1.6863570945953088e-02 2.5563979086989291e-01 0.0000000000000000e+00  -3.3530216569964216e-02 2.5194013371770985e-01 0.0000000000000000e+00  -4.9873884780325811e-02 2.4581412557102975e-01 0.0000000000000000e+00  -6.5737148764229036e-02 2.3732077039363311e-01 0.0000000000000000e+00  -8.0967207886887702e-02 2.2654187410202950e-01 0.0000000000000000e+00  -9.5417359512590963e-02 2.1358125745250656e-01 0.0000000000000000e+00  -1.0894841225848129e-01 1.9856375706768700e-01 0.0000000000000000e+00  -1.2143002711291651e-01 1.8163402426456698e-01 0.0000000000000000e+00  -1.3274197356522552e-01 1.6295513330737393e-01 0.0000000000000000e+00  -1.4277528874494835e-01 1.4270701257582655e-01 0.0000000000000000e+00  -1.5143332855284955e-01 1.2108471391781762e-01 0.0000000000000000e+00  -1.5863270086418305e-01 9.8296537174276749e-02 0.0000000000000000e+00  -1.6430407203407393e-01 7.4562028552922391e-02 0.0000000000000000e+00  -1.6839283846213668e-01 5.0109873513214283e-02 0.0000000000000000e+00  -1.7085966425563862e-01 2.5175697177584493e-02 0.0000000000000000e+00  -1.7168064357190191e-01 3.1465859381646470e-17 0.0000000000000000e+00  1.9603830592389626e-01 0.0000000000000000e+00 0.0000000000000000e+00  1.9509315047673362e-01 2.3408299168806088e-02 0.0000000000000000e+00  1.9226863004596298e-01 4.6590777041140397e-02 0.0000000000000000e+00  1.8759214168467603e-01 6.9324355658168718e-02 0.0000000000000000e+00  1.8110870806441259e-01 9.1390118805937517e-02 0.0000000000000000e+00  1.7288077606695598e-01 1.1257559653704229e-01 0.0000000000000000e+00  1.6298760468844117e-01 1.3267679376919583e-01 0.0000000000000000e+00  1.5152449699642684e-01 1.5150015076446163e-01 0.0000000000000000e+00  1.3860187840311561e-01 1.6886440642874181e-01 0.0000000000000000e+00  1.2434423084928675e-01 1.8460234492981517e-01 0.0000000000000000e+00  1.0888889282087812e-01 1.9856240763133312e-01 0.0000000000000000e+00  9.2384736315294438e-02 2.1061015423398388e-01 0.0000000000000000e+00  7.4990733152584282e-02 2.2062955882968807e-01 0.0000000000000000e+00  5.6874424214372707e-02 2.2852412834764829e-01 0.0000000000000000e+00  3.8210306222838691e-02 2.3421783265806423e-01 0.0000000000000000e+00  1.9178151526392011e-02 2.3765583743668295e-01 0.0000000000000000e+00  -3.8722962180413550e-05 2.3880503279385498e-01 0.0000000000000000e+00  -1.9255221022635619e-02 2.3765435263207638e-01 0.0000000000000000e+00  -3.8286249590546190e-02 2.3421488170384586e-01 0.0000000000000000e+00  -5.6948501271274626e-02 2.2851974938017855e-01 0.0000000000000000e+00  -7.5062219750591658e-02 2.2062381119052052e-01 0.0000000000000000e+00  -9.2452931116747961e-02 2.1060312123751232e-01 0.0000000000000000e+00  -1.0895312444295811e-01 1.9855420060568621e-01 0.0000000000000000e+00  -1.2440386547569020e-01 1.8459310885309826e-01 0.0000000000000000e+00  -1.3865632792882068e-01 1.6885432758213140e-01 0.0000000000000000e+00  -1.5157322769115070e-01 1.5148946691622242e-01 0.0000000000000000e+00  -1.6303014620678269e-01 1.3266580745394471e-01 0.0000000000000000e+00  -1.7291673036901745e-01 1.1256469192790226e-01 0.0000000000000000e+00  -1.8113775744366084e-01 9.1379782363707515e-02 0.0000000000000000e+00  -1.8761405473929985e-01 6.9315199975657146e-02 0.0000000000000000e+00  -1.9228326431189585e-01 4.6583566583268080e-02 0.0000000000000000e+00  -1.9510045249178512e-01 2.3403957553124435e-02 0.0000000000000000e+00  -1.9603830592389626e-01 2.9253550419836805e-17 0.0000000000000000e+00  2.1850801222440450e-01 0.0000000000000000e+00 0.0000000000000000e+00  2.1745402801692360e-01 2.1411109695093709e-02 0.0000000000000000e+00  2.1430536856217744e-01 4.2615769839983213e-02 0.0000000000000000e+00  2.0909257201269477e-01 6.3409922168880778e-02 0.0000000000000000e+00  2.0186582203147521e-01 8.3593295269284038e-02 0.0000000000000000e+00  1.9269471538765937e-01 1.0297152002447006e-01 0.0000000000000000e+00  1.8166758418226928e-01 1.2135798506510190e-01 0.0000000000000000e+00  1.6889064257715353e-01 1.3857562948240001e-01 0.0000000000000000e+00  1.5448696097994022e-01 1.5445864592507105e-01 0.0000000000000000e+00  1.3859527865089499e-01 1.6885407698396362e-01 0.0000000000000000e+00  1.2136866620883281e-01 1.8162328867489358e-01 0.0000000000000000e+00  1.0297305074677508e-01 1.9264330630848853e-01 0.0000000000000000e+00  8.3585617555080594e-02 2.0180799960285431e-01 0.0000000000000000e+00  6.3393103673890880e-02 2.0902910550630135e-01 0.0000000000000000e+00  4.2589999588554008e-02 2.1423707884973689e-01 0.0000000000000000e+00  2.1376676308496441e-02 2.1738176265016876e-01 0.0000000000000000e+00  -4.2544182156519135e-05 2.1843287164184996e-01 0.0000000000000000e+00  -2.1461356550731676e-02 2.1738028441597612e-01 0.0000000000000000e+00  -4.