<?xml version="1.0"?>
<VTKFile type="UnstructuredGrid"  version="0.1"  >
<UnstructuredGrid>
<Piece  NumberOfPoints="25" NumberOfCells="32">
<Points>
<DataArray  type="Float64"  NumberOfComponents="3"  format="ascii">0 0 0  0.25 0 0  0.5 0 0  0.75 0 0  1 0 0  0 0.25 0  0.25 0.25 0  0.5 0.25 0  0.75 0.25 0  1 0.25 0  0 0.5 0  0.25 0.5 0  0.5 0.5 0  0.75 0.5 0  1 0.5 0  0 0.75 0  0.25 0.75 0  0.5 0.75 0  0.75 0.75 0  1 0.75 0  0 1 0  0.25 1 0  0.5 1 0  0.75 1 0  1 1 0  </DataArray>
</Points>
<Cells>
<DataArray  type="UInt32"  Name="connectivity"  format="ascii">0 1 6  0 5 6  1 2 7  1 6 7  2 3 8  2 7 8  3 4 9  3 8 9  5 6 11  5 10 11  6 7 12  6 11 12  7 8 13  7 12 13  8 9 14  8 13 14  10 11 16  10 15 16  11 12 17  11 16 17  12 13 18  12 17 18  13 14 19  13 18 19  15 16 21  15 20 21  16 17 22  16 21 22  17 18 23  17 22 23  18 19 24  18 23 24  </DataArray>
<DataArray  type="UInt32"  Name="offsets"  format="ascii">3 6 9 12 15 18 21 24 27 30 33 36 39 42 45 48 51 54 57 60 63 66 69 72 75 78 81 84 87 90 93 96 </DataArray>
<DataArray  type="UInt8"  Name="types"  format="ascii">5 5 5 5 5 5 5 5 5 5 5 5 5 5 5 5 5 5 5 5 5 5 5 5 5 5 5 5 5 5 5 5 </DataArray>
</Cells>
<PointData  Vectors="f_28-0"> 
<DataArray  type="Float64"  Name="f_28-0"  NumberOfComponents="3" format="ascii">0.0000000000000000e+00 0.0000000000000000e+00 0.0000000000000000e+00  0.0000000000000000e+00 2.1850801222440450e-01 0.0000000000000000e+00  0.0000000000000000e+00 3.0901699437493885e-01 0.0000000000000000e+00  -0.0000000000000000e+00 2.1850801222440452e-01 0.0000000000000000e+00  -0.0000000000000000e+00 3.7843667304340458e-17 0.0000000000000000e+00  2.1850801222440450e-01 0.0000000000000000e+00 0.0000000000000000e+00  1.5366660170494870e-01 1.5162426799133949e-01 0.0000000000000000e+00  -2.6957762726608466e-03 2.1419237534719476e-01 0.0000000000000000e+00  -1.5741995055093400e-01 1.5095658870642031e-01 0.0000000000000000e+00  -2.1850801222440450e-01 2.6759513775866771e-17 0.0000000000000000e+00  3.0901699437493896e-01 0.0000000000000000e+00 0.0000000000000000e+00  2.1656346331059614e-01 -4.9988800005200760e-03 0.0000000000000000e+00  -3.6692644031549727e-03 -6.7671884317078738e-03 0.0000000000000000e+00  -2.2160864616498491e-01 -5.0627847771181353e-03 0.0000000000000000e+00  -3.0901699437493896e-01 2.3172563016128942e-33 0.0000000000000000e+00  2.1850801222440452e-01 -0.0000000000000000e+00 0.0000000000000000e+00  1.5236328837682270e-01 -1.5882665022133621e-01 0.0000000000000000e+00  -2.7596810492579865e-03 -2.2397973412838615e-01 0.0000000000000000e+00  -1.5606917244983307e-01 -1.5811150616344319e-01 0.0000000000000000e+00  -2.1850801222440452e-01 -2.6759513775866765e-17 0.0000000000000000e+00  3.7843667304340458e-17 -0.0000000000000000e+00 0.0000000000000000e+00  2.6759513775866771e-17 -2.1850801222440450e-01 0.0000000000000000e+00  2.3172563016128942e-33 -3.0901699437493890e-01 0.0000000000000000e+00  -2.6759513775866765e-17 -2.1850801222440452e-01 0.0000000000000000e+00  -3.7843667304340458e-17 -3.7843667304340458e-17 0.0000000000000000e+00  </DataArray> 
</PointData> 
</Piece>
</UnstructuredGrid>
</VTKFile>