<?xml version="1.0"?>
<VTKFile type="UnstructuredGrid"  version="0.1"  >
<UnstructuredGrid>
<Piece  NumberOfPoints="16641" NumberOfCells="32768">
<Points>
<DataArray  type="Float64"  NumberOfComponents="3"  format="ascii">0 0 0  0.0078125 0 0  0.015625 0 0  0.0234375 0 0  0.03125 0 0  0.0390625 0 0  0.046875 0 0  0.0546875 0 0  0.0625 0 0  0.0703125 0 0  0.078125 0 0  0.0859375 0 0  0.09375 0 0  0.1015625 0 0  0.109375 0 0  0.1171875 0 0  0.125 0 0  0.1328125 0 0  0.140625 0 0  0.1484375 0 0  0.15625 0 0  0.1640625 0 0  0.171875 0 0  0.1796875 0 0  0.1875 0 0  0.1953125 0 0  0.203125 0 0  0.2109375 0 0  0.21875 0 0  0.2265625 0 0  0.234375 0 0  0.2421875 0 0  0.25 0 0  0.2578125 0 0  0.265625 0 0  0.2734375 0 0  0.28125 0 0  0.2890625 0 0  0.296875 0 0  0.3046875 0 0  0.3125 0 0  0.3203125 0 0  0.328125 0 0  0.3359375 0 0  0.34375 0 0  0.3515625 0 0  0.359375 0 0  0.3671875 0 0  0.375 0 0  0.3828125 0 0  0.390625 0 0  0.3984375 0 0  0.40625 0 0  0.4140625 0 0  0.421875 0 0  0.4296875 0 0  0.4375 0 0  0.4453125 0 0  0.453125 0 0  0.4609375 0 0  0.46875 0 0  0.4765625 0 0  0.484375 0 0  0.4921875 0 0  0.5 0 0  0.5078125 0 0  0.515625 0 0  0.5234375 0 0  0.53125 0 0  0.5390625 0 0  0.546875 0 0  0.5546875 0 0  0.5625 0 0  0.5703125 0 0  0.578125 0 0  0.5859375 0 0  0.59375 0 0  0.6015625 0 0  0.609375 0 0  0.6171875 0 0  0.625 0 0  0.6328125 0 0  0.640625 0 0  0.6484375 0 0  0.65625 0 0  0.6640625 0 0  0.671875 0 0  0.6796875 0 0  0.6875 0 0  0.6953125 0 0  0.703125 0 0  0.7109375 0 0  0.71875 0 0  0.7265625 0 0  0.734375 0 0  0.7421875 0 0  0.75 0 0  0.7578125 0 0  0.765625 0 0  0.7734375 0 0  0.78125 0 0  0.7890625 0 0  0.796875 0 0  0.8046875 0 0  0.8125 0 0  0.8203125 0 0  0.828125 0 0  0.8359375 0 0  0.84375 0 0  0.8515625 0 0  0.859375 0 0  0.8671875 0 0  0.875 0 0  0.8828125 0 0  0.890625 0 0  0.8984375 0 0  0.90625 0 0  0.9140625 0 0  0.921875 0 0  0.9296875 0 0  0.9375 0 0  0.9453125 0 0  0.953125 0 0  0.9609375 0 0  0.96875 0 0  0.9765625 0 0  0.984375 0 0  0.9921875 0 0  1 0 0  0 0.0078125 0  0.0078125 0.0078125 0  0.015625 0.0078125 0  0.0234375 0.0078125 0  0.03125 0.0078125 0  0.0390625 0.0078125 0  0.046875 0.0078125 0  0.0546875 0.0078125 0  0.0625 0.0078125 0  0.0703125 0.0078125 0  0.078125 0.0078125 0  0.0859375 0.0078125 0  0.09375 0.0078125 0  0.1015625 0.0078125 0  0.109375 0.0078125 0  0.1171875 0.0078125 0  0.125 0.0078125 0  0.1328125 0.0078125 0  0.140625 0.0078125 0  0.1484375 0.0078125 0  0.15625 0.0078125 0  0.1640625 0.0078125 0  0.171875 0.0078125 0  0.1796875 0.0078125 0  0.1875 0.0078125 0  0.1953125 0.0078125 0  0.203125 0.0078125 0  0.2109375 0.0078125 0  0.21875 0.0078125 0  0.2265625 0.0078125 0  0.234375 0.0078125 0  0.2421875 0.0078125 0  0.25 0.0078125 0  0.2578125 0.0078125 0  0.265625 0.0078125 0  0.2734375 0.0078125 0  0.28125 0.0078125 0  0.2890625 0.0078125 0  0.296875 0.0078125 0  0.3046875 0.0078125 0  0.3125 0.0078125 0  0.3203125 0.0078125 0  0.328125 0.0078125 0  0.3359375 0.0078125 0  0.34375 0.0078125 0  0.3515625 0.0078125 0  0.359375 0.0078125 0  0.3671875 0.0078125 0  0.375 0.0078125 0  0.3828125 0.0078125 0  0.390625 0.0078125 0  0.3984375 0.0078125 0  0.40625 0.0078125 0  0.4140625 0.0078125 0  0.421875 0.0078125 0  0.4296875 0.0078125 0  0.4375 0.0078125 0  0.4453125 0.0078125 0  0.453125 0.0078125 0  0.4609375 0.0078125 0  0.46875 0.0078125 0  0.4765625 0.0078125 0  0.484375 0.0078125 0  0.4921875 0.0078125 0  0.5 0.0078125 0  0.5078125 0.0078125 0  0.515625 0.0078125 0  0.5234375 0.0078125 0  0.53125 0.0078125 0  0.5390625 0.0078125 0  0.546875 0.0078125 0  0.5546875 0.0078125 0  0.5625 0.0078125 0  0.5703125 0.0078125 0  0.578125 0.0078125 0  0.5859375 0.0078125 0  0.59375 0.0078125 0  0.6015625 0.0078125 0  0.609375 0.0078125 0  0.6171875 0.0078125 0  0.625 0.0078125 0  0.6328125 0.0078125 0  0.640625 0.0078125 0  0.6484375 0.0078125 0  0.65625 0.0078125 0  0.6640625 0.0078125 0  0.671875 0.0078125 0  0.6796875 0.0078125 0  0.6875 0.0078125 0  0.6953125 0.0078125 0  0.703125 0.0078125 0  0.7109375 0.0078125 0  0.71875 0.0078125 0  0.7265625 0.0078125 0  0.734375 0.0078125 0  0.7421875 0.0078125 0  0.75 0.0078125 0  0.7578125 0.0078125 0  0.765625 0.0078125 0  0.7734375 0.0078125 0  0.78125 0.0078125 0  0.7890625 0.0078125 0  0.796875 0.0078125 0  0.8046875 0.0078125 0  0.8125 0.0078125 0  0.8203125 0.0078125 0  0.828125 0.0078125 0  0.8359375 0.0078125 0  0.84375 0.0078125 0  0.8515625 0.0078125 0  0.859375 0.0078125 0  0.8671875 0.0078125 0  0.875 0.0078125 0  0.8828125 0.0078125 0  0.890625 0.0078125 0  0.8984375 0.0078125 0  0.90625 0.0078125 0  0.9140625 0.0078125 0  0.921875 0.0078125 0  0.9296875 0.0078125 0  0.9375 0.0078125 0  0.9453125 0.0078125 0  0.953125 0.0078125 0  0.9609375 0.0078125 0  0.96875 0.0078125 0  0.9765625 0.0078125 0  0.984375 0.0078125 0  0.9921875 0.0078125 0  1 0.0078125 0  0 0.015625 0  0.0078125 0.015625 0  0.015625 0.015625 0  0.0234375 0.015625 0  0.03125 0.015625 0  0.0390625 0.015625 0  0.046875 0.015625 0  0.0546875 0.015625 0  0.0625 0.015625 0  0.0703125 0.015625 0  0.078125 0.015625 0  0.0859375 0.015625 0  0.09375 0.015625 0  0.1015625 0.015625 0  0.109375 0.015625 0  0.1171875 0.015625 0  0.125 0.015625 0  0.1328125 0.015625 0  0.140625 0.015625 0  0.1484375 0.015625 0  0.15625 0.015625 0  0.1640625 0.015625 0  0.171875 0.015625 0  0.1796875 0.015625 0  0.1875 0.015625 0  0.1953125 0.015625 0  0.203125 0.015625 0  0.2109375 0.015625 0  0.21875 0.015625 0  0.2265625 0.015625 0  0.234375 0.015625 0  0.2421875 0.015625 0  0.25 0.015625 0  0.2578125 0.015625 0  0.265625 0.015625 0  0.2734375 0.015625 0  0.28125 0.015625 0  0.2890625 0.015625 0  0.296875 0.015625 0  0.3046875 0.015625 0  0.3125 0.015625 0  0.3203125 0.015625 0  0.328125 0.015625 0  0.3359375 0.015625 0  0.34375 0.015625 0  0.3515625 0.015625 0  0.359375 0.015625 0  0.3671875 0.015625 0  0.375 0.015625 0  0.3828125 0.015625 0  0.390625 0.015625 0  0.3984375 0.015625 0  0.40625 0.015625 0  0.4140625 0.015625 0  0.421875 0.015625 0  0.4296875 0.015625 0  0.4375 0.015625 0  0.4453125 0.015625 0  0.453125 0.015625 0  0.4609375 0.015625 0  0.46875 0.015625 0  0.4765625 0.015625 0  0.484375 0.015625 0  0.4921875 0.015625 0  0.5 0.015625 0  0.5078125 0.015625 0  0.515625 0.015625 0  0.5234375 0.015625 0  0.53125 0.015625 0  0.5390625 0.015625 0  0.546875 0.015625 0  0.5546875 0.015625 0  0.5625 0.015625 0  0.5703125 0.015625 0  0.578125 0.015625 0  0.5859375 0.015625 0  0.59375 0.015625 0  0.6015625 0.015625 0  0.609375 0.015625 0  0.6171875 0.015625 0  0.625 0.015625 0  0.6328125 0.015625 0  0.640625 0.015625 0  0.6484375 0.015625 0  0.65625 0.015625 0  0.6640625 0.015625 0  0.671875 0.015625 0  0.6796875 0.015625 0  0.6875 0.015625 0  0.6953125 0.015625 0  0.703125 0.015625 0  0.7109375 0.015625 0  0.71875 0.015625 0  0.7265625 0.015625 0  0.734375 0.015625 0  0.7421875 0.015625 0  0.75 0.015625 0  0.7578125 0.015625 0  0.765625 0.015625 0  0.7734375 0.015625 0  0.78125 0.015625 0  0.7890625 0.015625 0  0.796875 0.015625 0  0.8046875 0.015625 0  0.8125 0.015625 0  0.8203125 0.015625 0  0.828125 0.015625 0  0.8359375 0.015625 0  0.84375 0.015625 0  0.8515625 0.015625 0  0.859375 0.015625 0  0.8671875 0.015625 0  0.875 0.015625 0  0.8828125 0.015625 0  0.890625 0.015625 0  0.8984375 0.015625 0  0.90625 0.015625 0  0.9140625 0.015625 0  0.921875 0.015625 0  0.9296875 0.015625 0  0.9375 0.015625 0  0.9453125 0.015625 0  0.953125 0.015625 0  0.9609375 0.015625 0  0.96875 0.015625 0  0.9765625 0.015625 0  0.984375 0.015625 0  0.9921875 0.015625 0  1 0.015625 0  0 0.0234375 0  0.0078125 0.0234375 0  0.015625 0.0234375 0  0.0234375 0.0234375 0  0.03125 0.0234375 0  0.0390625 0.0234375 0  0.046875 0.0234375 0  0.0546875 0.0234375 0  0.0625 0.0234375 0  0.0703125 0.0234375 0  0.078125 0.0234375 0  0.0859375 0.0234375 0  0.09375 0.0234375 0  0.1015625 0.0234375 0  0.109375 0.0234375 0  0.1171875 0.0234375 0  0.125 0.0234375 0  0.1328125 0.0234375 0  0.140625 0.0234375 0  0.1484375 0.0234375 0  0.15625 0.0234375 0  0.1640625 0.0234375 0  0.171875 0.0234375 0  0.1796875 0.0234375 0  0.1875 0.0234375 0  0.1953125 0.0234375 0  0.203125 0.0234375 0  0.2109375 0.0234375 0  0.21875 0.0234375 0  0.2265625 0.0234375 0  0.234375 0.0234375 0  0.2421875 0.0234375 0  0.25 0.0234375 0  0.2578125 0.0234375 0  0.265625 0.0234375 0  0.2734375 0.0234375 0  0.28125 0.0234375 0  0.2890625 0.0234375 0  0.296875 0.0234375 0  0.3046875 0.0234375 0  0.3125 0.0234375 0  0.3203125 0.0234375 0  0.328125 0.0234375 0  0.3359375 0.0234375 0  0.34375 0.0234375 0  0.3515625 0.0234375 0  0.359375 0.0234375 0  0.3671875 0.0234375 0  0.375 0.0234375 0  0.3828125 0.0234375 0  0.390625 0.0234375 0  0.3984375 0.0234375 0  0.40625 0.0234375 0  0.4140625 0.0234375 0  0.421875 0.0234375 0  0.4296875 0.0234375 0  0.4375 0.0234375 0  0.4453125 0.0234375 0  0.453125 0.0234375 0  0.4609375 0.0234375 0  0.46875 0.0234375 0  0.4765625 0.0234375 0  0.484375 0.0234375 0  0.4921875 0.0234375 0  0.5 0.0234375 0  0.5078125 0.0234375 0  0.515625 0.0234375 0  0.5234375 0.0234375 0  0.53125 0.0234375 0  0.5390625 0.0234375 0  0.546875 0.0234375 0  0.5546875 0.0234375 0  0.5625 0.0234375 0  0.5703125 0.0234375 0  0.578125 0.0234375 0  0.5859375 0.0234375 0  0.59375 0.0234375 0  0.6015625 0.0234375 0  0.609375 0.0234375 0  0.6171875 0.0234375 0  0.625 0.0234375 0  0.6328125 0.0234375 0  0.640625 0.0234375 0  0.6484375 0.0234375 0  0.65625 0.0234375 0  0.6640625 0.0234375 0  0.671875 0.0234375 0  0.6796875 0.0234375 0  0.6875 0.0234375 0  0.6953125 0.0234375 0  0.703125 0.0234375 0  0.7109375 0.0234375 0  0.71875 0.0234375 0  0.7265625 0.0234375 0  0.734375 0.0234375 0  0.7421875 0.0234375 0  0.75 0.0234375 0  0.7578125 0.0234375 0  0.765625 0.0234375 0  0.7734375 0.0234375 0  0.78125 0.0234375 0  0.7890625 0.0234375 0  0.796875 0.0234375 0  0.8046875 0.0234375 0  0.8125 0.0234375 0  0.8203125 0.0234375 0  0.828125 0.0234375 0  0.8359375 0.0234375 0  0.84375 0.0234375 0  0.8515625 0.0234375 0  0.859375 0.0234375 0  0.8671
[...]
<CellData  Scalars="f_31623"> 
<DataArray  type="Float64"  Name="f_31623"  format="ascii">1.7682422327673190e-13   1.7682422327631667e-13   3.8394821667536790e-14   6.4179424865997265e-14   3.5716881683032714e-14   3.9383657517402927e-14   3.7164004567998205e-14   3.7800253231229317e-14   3.8471962220875928e-14   3.8626963336840570e-14   3.9458492913699232e-14   3.9641618398143464e-14   4.0206253474738000e-14   4.0496443649235694e-14   4.0780594262339466e-14   4.1171228253174018e-14   4.1222339136970893e-14   4.1694097617028425e-14   4.1556866591387505e-14   4.2092046036986821e-14   4.1800404817195488e-14   4.2384966230329108e-14   4.1963699901634228e-14   4.2586846429549895e-14   4.2054134576781509e-14   4.2707548017310715e-14   4.2076978498637738e-14   4.2754161336812415e-14   4.2036147672793121e-14   4.2731929141011529e-14   4.1934678966280798e-14   4.2644859692364332e-14   4.1775035029695675e-14   4.2496134183289475e-14   4.1559304817776987e-14   4.2288380194107219e-14   4.1289338552683731e-14   4.2023857701242346e-14   4.0966840059161232e-14   4.1704587306057094e-14   4.0593431120035405e-14   4.1332439780666800e-14   4.0170696608384293e-14   4.0909199230315967e-14   3.9700216646542159e-14   4.0436608105846631e-14   3.9183589294935914e-14   3.9916399324222861e-14   3.8622446836200945e-14   3.9350319281539860e-14   3.8018466923957605e-14   3.8740144209021136e-14   3.7373380380616943e-14   3.8087691623315167e-14   3.6688976083861961e-14   3.7394828114475545e-14   3.5967103845080007e-14   3.6663474422344666e-14   3.5209675705207442e-14   3.5895608211757895e-14   3.4418665826012575e-14   3.5093265417265923e-14   3.3596109454880747e-14   3.4258540042505026e-14   3.2744101064547611e-14   3.3393583028231150e-14   3.1864791700168218e-14   3.2500600242154202e-14   3.0960385864118856e-14   3.1581849791935183e-14   3.0033137936104402e-14   3.0639638669386266e-14   2.9085348102530508e-14   2.9676319040340144e-14   2.8119357984862661e-14   2.8694284073392243e-14   2.7137546101960318e-14   2.7695963407343922e-14   2.6142322918132133e-14   2.6683818437480120e-14   2.5136125789645940e-14   2.5660337182771168e-14   2.4121413712440463e-14   2.4628029168490923e-14   2.3100662007241240e-14   2.3589420072639004e-14   2.2076356706685320e-14   2.2547046089279470e-14   2.1050989128493307e-14   2.1503448466695811e-14   2.0027050078003445e-14   2.0461167756431433e-14   1.9007024297904226e-14   1.9422738063420548e-14   1.7993384687518845e-14   1.8390681376832337e-14   1.6988586617875589e-14   1.7367501648314665e-14   1.5995062233758176e-14   1.6355679142508553e-14   1.5015214779771349e-14   1.5357664686999157e-14   1.4051413020207297e-14   1.4375873903572359e-14   1.3105985646622229e-14   1.3412681659569794e-14   1.2181215853676499e-14   1.2470416502964345e-14   1.1279335958138755e-14   1.1551355187925513e-14   1.0402522130979955e-14   1.0657717342603864e-14   9.5528892912866414e-15   9.7916602458091238e-15   8.7324860675286470e-15   8.9552737704594525e-15   7.9432900174804395e-15   8.1505754290373412e-15   7.1872028975358218e-15   7.3795056560032582e-15   6.4660462169235081e-15   6.6439231677147460e-15   5.7815568590747283e-15   5.9456006341536730e-15   5.1353830703737407e-15   5.2862204604951830e-15   4.5290804519009723e-15   4.6673707990267387e-15   3.9641083943416553e-15   4.0905418571925056e-15   3.4418264966969885e-15   3.5571222894092016e-15   2.9634914784359307e-15   3.0683959991736775e-15   2.5302541606196720e-15   2.6255390911942201e-15   2.1431567729849614e-15   2.2296170586060018e-15   1.8031304484452105e-15   1.8815823420541828e-15   1.5109931524232842e-15   1.5822720584755979e-15   1.2674476715084128e-15   1.3324060434701145e-15   1.0730800471335460e-15   1.1325852010014552e-15   9.2835821116688097e-16   9.8329008718404487e-16   8.3363092161040267e-16   8.8487983683427567e-16   7.8912699924757728e-16   8.3759133684422922e-16   7.9495485024219701e-16   8.4153872500449305e-16   8.5110227939096452e-16   8.9671317899261314e-16   9.5743659483490093e-16   1.0029829874676165e-15   1.1137050258856814e-15   1.1600939442902902e-15   1.3195354105492864e-15   1.3676700120126352e-15   1.5744371960759334e-15   1.6252142974742554e-15   1.8778027235883576e-15   1.9321103213837915e-15   2.2289088077819921e-15   2.2876235620885097e-15   2.6269185979098396e-15   2.6909033027626708e-15   3.0708837365998557e-15   3.1409847535323873e-15   3.5597467961792911e-15   3.6367914455902575e-15   4.0923439826554965e-15   4.1771379088931306e-15   4.6674081441678655e-15   4.7607326003684815e-15   5.2835720279662823e-15   5.3861810975207523e-15   5.9393718042625150e-15   6.0519895441001085e-15   6.6332508863374901e-15   6.7565683340585880e-15   7.3635639893907692e-15   7.4982360096979768e-15   8.1285814773021925e-15   8.2752234064692327e-15   8.9264939334599657e-15   9.0856779977536816e-15   9.7554170778393565e-15   9.9276684063681114e-15   1.0613396880649017e-14   1.0799189131673678e-14   1.1498415035900581e-14   1.1698165432402704e-14   1.2408394692132171e-14   1.2622458312238391e-14   1.3341206598956639e-14   1.3569869696047994e-14   1.4294675575555172e-14   1.4538147589427105e-14   1.5266587490824746e-14   1.5524991406745395e-14   1.6254696756617548e-14   1.6528057194848230e-14   1.7256734555934140e-14   1.7544962875068663e-14   1.8270417999790019e-14   1.8573293309435578e-14   1.9293460378935521e-14   1.9610605076367753e-14   2.0323583198128217e-14   2.0654430901217941e-14   2.1358530446029396e-14   2.1702283341745270e-14   2.2396086263457135e-14   2.2751657559920898e-14   2.3434097520576413e-14   2.3800032559930597e-14   2.4470503875958201e-14   2.4844870226934815e-14   2.5503379520469072e-14   2.5883611106038928e-14   2.6530993394837930e-14   2.6913665254502430e-14   2.7551900118325512e-14   2.7932395976194174e-14   2.8565082849123177e-14   2.8937093104362215e-14   2.9570188397280403e-14   2.9924931982785997e-14   3.0567932109271942e-14   3.0892914864177533e-14   3.1560831193876346e-14   3.1837798816044363e-14   3.2554604532082883e-14   3.2756044969685504e-14   3.3560993267650801e-14   3.3643938646777237e-14   3.4603720533538189e-14   3.4498447504768705e-14   3.5731355521639397e-14   3.5320955353797256e-14   3.7043287073168749e-14   3.6132222660619111e-14   3.8721151597222767e-14   3.7032678040356633e-14   4.0891812713735515e-14   3.8447648491193397e-14   4.2226487459776454e-14   4.2025725702020766e-14   4.6680571650691363e-14   5.1339451655743496e-14   2.3919833251926838e-12   1.0174877659653750e-13   6.4179424866796021e-14   3.8394821667263996e-14   4.5519319344521187e-14   4.5519319344680694e-14   4.1239891770992528e-14   4.6838227073819126e-14   4.0693914456806799e-14   4.4081309860125865e-14   4.0917831860987875e-14   4.2365582361803936e-14   4.1359455402424924e-14   4.1932000490087111e-14   4.1807726367738220e-14   4.2018681917298919e-14   4.2198793400729212e-14   4.2266037390448876e-14   4.2516721658310126e-14   4.2534090683126993e-14   4.2760019348884428e-14   4.2769223074109858e-14   4.2931183068093364e-14   4.2951007979325676e-14   4.3033467382652533e-14   4.3072166224703105e-14   4.3069943213077677e-14   4.3130770401355763e-14   4.3043289964094579e-14   4.3127086226333025e-14   4.2955814822321750e-14   4.3062255883923875e-14   4.2809530888968874e-14   4.2937745120162411e-14   4.2606239319669931e-14   4.2755117031237738e-14   4.2347599637538092e-14   4.2515947664251252e-14   4.2035185542214865e-14   4.2221802927825935e-14   4.1670527946007747e-14   4.1874240749265959e-14   4.1255147324447145e-14   4.1474822491935865e-14   4.0790577916371984e-14   4.1025126505893138e-14   4.0278385444655965e-14   4.0526760857985639e-14   3.9720180165896974e-14   3.9981374001337481e-14   3.9117625983908796e-14   3.9390663273889664e-14   3.8472446685127861e-14   3.8756381196404175e-14   3.7786430054183462e-14   3.8080339986311448e-14   3.7061429921878357e-14   3.7364414211249729e-14   3.6299366969409105e-14   3.6610542268799013e-14   3.5502228438447796e-14   3.5820726567783035e-14   3.4672066647150115e-14   3.4997032678194279e-14   3.3810996998834140e-14   3.4141587792311602e-14   3.2921195178842188e-14   3.3256578329746849e-14   3.2004893783339237e-14   3.2344246996893279e-14   3.1064378767515689e-14   3.1406889466954873e-14   3.0101985138286523e-14   3.0446850364229536e-14   2.9120092511689756e-14   2.9466519085105636e-14   2.8121120443642734e-14   2.8468325262590562e-14   2.7107523353675515e-14   2.7454733933804200e-14   2.6081785388403412e-14   2.6428240448245473e-14   2.5046415058823471e-14   2.5391365259883113e-14   2.4003939667906263e-14   2.4346648456012033e-14   2.2956899864128018e-14   2.3296644328738980e-14   2.1907843692364879e-14   2.2243915586895288e-14   2.0859321028564503e-14   2.1191027736075531e-14   1.9813877662813039e-14   2.0140543202343863e-14   1.8774049435729213e-14   1.9095015542084199e-14   1.7742356391069082e-14   1.8056983625185023e-14   1.6721297024023642e-14   1.7028965718943325e-14   1.5713342262139187e-14   1.6013453719396540e-14   1.4720929942657574e-14   1.5012907376938788e-14   1.3746458894905052e-14   1.4029748509982300e-14   1.2792283438947648e-14   1.3066355377821246e-14   1.1860707768027516e-14   1.2125057116728524e-14   1.0953980578484019e-14   1.1208128331817736e-14   1.0074289760150517e-14   1.0317783606815391e-14   9.2237572064631101e-15   9.4561724650549413e-15   8.4044338249060878e-15   8.6253741328604854e-15   7.6182946546049733e-15   7.8273928114595874e-15   6.8672342429393062e-15   7.0641528243437487e-15   6.1530621533021523e-15   6.3374940930561706e-15   5.4774986334067359e-15   5.6491678161609917e-15   4.8421706146736658e-15   5.0008323449939187e-15   4.2486078024246222e-15   4.3940491889811520e-15   3.6982391247271291e-15   3.8302794288067293e-15   3.1923892799826821e-15   3.3108801643152942e-15   2.7322757067347385e-15   2.8371014045988343e-15   2.3190056046160924e-15   2.4100830167120950e-15   1.9535734099912840e-15   2.0308521520049873e-15   1.6368584527328909e-15   1.7003207109291185e-15   1.3696228670126282e-15   1.4192833128190554e-15   1.1525098572587323e-15   1.1884153526755633e-15   9.8604218818957068e-16   1.0082714596169223e-15   8.7062099745238253e-16   8.7928422737222099e-16   8.0652490750127425e-16   8.0176316379787366e-16   7.9390940716364453e-16   7.7589407011984900e-16   8.3280656115588499e-16   8.0173856769953985e-16   9.2312499995043388e-16   8.7923403580879025e-16   1.0646502128760871e-15   1.0081937899380176e-15   1.2570451620354695e-15   1.1883075730932260e-15   1.4998511627407190e-15   1.4191423365953028e-15   1.7924890871906449e-15   1.7001433210510276e-15   2.1342608562452614e-15   2.0306354210066250e-15   2.5243512170427670e-15   2.4098248358032621e-15   2.9618298235524192e-15   2.8368010027719678e-15   3.4456535873321245e-15   3.3105387986560600e-15   3.9746693317589725e-15   3.8299010183882956e-15   4.5476166893404745e-15   4.3936410935339611e-15   5.1631313035880381e-15   5.0004060776063841e-15   5.8197482889261499e-15   5.6487398739488456e-15   6.5159058938526576e-15   6.3370866265993409e-15   7.2499495204983979e-15   7.0637944527726737e-15   8.0201359049388271e-15   7.8271192069836935e-15   8.8246375575722603e-15   8.6252285305797538e-15   9.6615474391464263e-15   9.4562059996617110e-15   1.0528883902885369e-14   1.0318055415628247e-14   1.1424595726430114e-14   1.1208705132989466e-14   1.2346567530535869e-14   1.2126012515862962e-14   1.3292625242632614e-14   1.3067768251998712e-14   1.4260541876192983e-14   1.4031700672571516e-14   1.5248043404554615e-14   1.5015479846727931e-14   1.6252814876032662e-14   1.6016721402692961e-14   1.7272506672522001e-14   1.7032989789167910e-14   1.8304740894126703e-14   1.8061800968458462e-14   1.9347117904097702e-14   1.9100623956554278e-14   2.0397222862704782e-14   2.0146880996527467e-14   2.1452632293796611e-14   2.1197945558884599e-14   2.2510920384144418e-14   2.2251137404363171e-14   2.3569664719523488e-14   2.3303713235336885e-14   2.4626450981729798e-14   2.4352850988491421e-14   2.5678875399082897e-14   2.5395624791093432e-14   2.6724542984309302e-14   2.6428965895819906e-14   2.7761057590949798e-14   2.7449602440052281e-14   2.8785996088919522e-14   2.8453966876112405e-14   2.9796850510261426e-14   2.9438052833460377e-14   3.0790904024949337e-14   3.0397192863657613e-14   3.1764963657328508e-14   3.1325709877832942e-14   3.2714766809700434e-14   3.2216366591066369e-14   3.3633598060915170e-14   3.3059492095848597e-14   3.4508861835287710e-14   3.3841599400358755e-14   3.5312999963648809e-14   3.4543220219556586e-14   3.5977924736452934e-14   3.5135509274114444e-14   3.6321054582810010e-14   3.5574117499657988e-14   3.5847884511222719e-14   3.5780549965642800e-14   3.3487409391670964e-14   3.5549700795155858e-14   3.0174052823657555e-14   3.4184773160223587e-14   5.3710501365246774e-14   3.1839683390189707e-14   4.7253658126322693e-14   5.2101092541102817e-14   3.9383657517529644e-14   3.5716881683376771e-14   4.6838227073904001e-14   4.1239891769869884e-14   4.4110527742811390e-14   4.4110527742275981e-14   4.2921348952738566e-14   4.4940925494107628e-14   4.2574035424874262e-14   4.4380734357922036e-14   4.2588466599234347e-14   4.3788204295790645e-14   4.2748131522621874e-14   4.3491497944519622e-14   4.2946916891903440e-14   4.3411794745958181e-14   4.3133032661788046e-14   4.3438706097045576e-14   4.3281784780292431e-14   4.3499839195213641e-14   4.3381629058292035e-14   4.3554085931650274e-14   4.3427379226327232e-14   4.3578966429798639e-14   4.3416958993335991e-14   4.3562339140361214e-14   4.3349842928620630e-14   4.3497752590628287e-14   4.3226299224824222e-14   4.3381926874253673e-14   4.3047017917378386e-14   4.3213389077337167e-14   4.2812927408372717e-14   4.2991725666238517e-14   4.2525104486958057e-14   4.2717166888303694e-14   4.2184731115473847e-14   4.2390352347894250e-14   4.1793074772803572e-14   4.2012196999726856e-14   4.1351480357980056e-14   4.1583813442322116e-14   4.0861367697706856e-14   4.1106466433622571e-14   4.0324231386483292e-14   4.0581545700942277e-14   3.9741641386052015e-14   4.0010549426211519e-14   3.9115243656311434e-14   3.9395073853684192e-14   3.8446760336594812e-14   3.8736806224354479e-14   3.7737989325787911e-14   3.8037519730976930e-14   3.6990803271588511e-14   3.7299069441150342e-14   3.6207147967691811e-14   3.6523388593302483e-14   3.5389040165411589e-14   3.5712485080766963e-14   3.4538564832993757e-14   3.4868437792691271e-14   3.3657871989999437e-14   3.3993392956256776e-14   3.2749173168348209e-14   3.3089560043138756e-14   3.1814737350895212e-14   3.2159207633935303e-14   3.0856886721242859e-14   3.1204658941429611e-14   2.9877992155492553e-14   3.0228287144771368e-14   2.8880468228369713e-14   2.9232510483436532e-14   2.7866768335784479e-14   2.8219787233599598e-14   2.6839379303041753e-14   2.7192610395114700e-14   2.5800816069788372e-14   2.6153502281547049e-14   2.4753616095852107e-14   2.5105008990682444e-14   2.3700333681024840e-14   2.4049694793331043e-14   2.2643534245486783e-14   2.2990136249489172e-14   2.1585788490444399e-14   2.1928916535841627e-14   2.0529666490190842e-14   2.0868619439110581e-14   1.9477731823578807e-14   1.9811823505233625e-14   1.8432535567017597e-14   1.8761096064013818e-14   1.7396610474631153e-14   1.7718987338783597e-14   1.6372465027870533e-14   1.6688024485015658e-14   1.5362577524872589e-14   1.5670705723049878e-14   1.4369390352065371e-14   1.4669494482369535e-14   1.3395304269692940e-14   1.3686813712979626e-14   1.2442672610033763e-14   1.2725040108291643e-14   1.1513795979744298e-14   1.1786498586010736e-14   1.0610916592512944e-14   1.0873456753614155e-14   9.7362131264708839e-15   9.9881196633493152e-15   8.8917955323840014e-15   9.1326245352686036e-15   8.0797000419283065e-15   8.3090357405634027e-15   7.3018843433012025e-15   7.5193398814999350e-15   6.5602229799743859e-15   6.7654411980398293e-15   5.8565028429574797e-15   6.0491569533550227e-15   5.1924190763943214e-15   5.3722132114670785e-15   4.5695708795369636e-15   4.7362406989773796e-15   3.9894578746396155e-15   4.1427709785330073e-15   3.4534764905948943e-15   3.5932328334842508e-15   2.9629166965241430e-15   3.0889488723271184e-15   2.5189588867342871e-15   2.6311323838056687e-15   2.1226711935757452e-15   2.2208845076313851e-15   1.7750068982457644e-15   1.8591916192072388e-15   1.4768022257066626e-15   1.5469229991652666e-15   1.2287743730674884e-15   1.2848287886648985e-15   1.0315198584802666e-15   1.0735382315496110e-15   8.8551311109314664e-16   9.1355819690755474e-16   7.9110539260407993e-16   8.0527200339020360e-16   7.4852402010483296e-16   7.4893852447189053e-16   7.5787186774274669e-16   7.4469160267052834e-16   8.1912715290067338e-16   7.9253975333141019e-16   9.3214357095275992e-16   8.9236617596494180e-16   1.0966506818058565e-15   1.0439290442869851e-15   1.3122546311604932e-15   1.2468621060873080e-15   1.5784391388842160e-15   1.5006755799235751e-15   1.8945667999438802e-15   1.8047573294666258e-15   2.2598806740166429e-15   2.1583743205690555e-15   2.6735061551349432e-15   2.5606743737111763e-15   3.1344531239272518e-15   3.0106881761720757e-15   3.6416183777799124e-15   3.5073315609593088e-15   4.1937883179867033e-15   4.0494080368775726e-15   4.7896419184441792e-15   4.6356115823397994e-15   5.4277539008873659e-15   5.2645296322348331e-15   6.1065982037437719e-15   5.9346463247010905e-15   6.8245516264448245e-15   6.6443459038973838e-15   7.5798976966227654e-15   7.3919163271006296e-15   8.3708307523774803e-15   8.1755530176197498e-15   9.1954601531489210e-15   8.9933627191226086e-15   1.0051814681065371e-14   9.8433674710852439e-15   1.0937847008967690e-14   1.0723508559442280e-14   1.1851438285897934e-14   1.1631650533508884e-14   1.2790402691927085e-14   1.2565585041026971e-14   1.3752492026128885e-14   1.3523034567070671e-14   1.4735400071495111e-14   1.4501655778081105e-14   1.5736766807593038e-14   1.5499042492969062e-14   1.6754182113711213e-14   1.6512727927094281e-14   1.7785188906630601e-14   1.7540186004004588e-14   1.8827285231565083e-14   1.8578831347117971e-14   1.9877924993642609e-14   1.9626017352655792e-14   2.0934516320175815e-14   2.0679031696544850e-14   2.1994416886940584e-14   2.1735088140845480e-14   2.3054924063288692e-14   2.2791313166867729e-14   2.4113257604373926e-14   2.3844725176623846e-14   2.5166530437358381e-14   2.4892203073069998e-14   2.6211700737765317e-14   2.5930439378493767e-14   2.7245493437089698e-14   2.6955870540575750e-14   2.8264271294065366e-14   2.7964573305550853e-14   2.9263819707191890e-14   2.8952109767945897e-14   3.0238980126958504e-14   2.9913293828423456e-14   3.1183008989187229e-14   3.0841835531691217e-14   3.2086421908412876e-14   3.1729792882658884e-14   3.2934838503284603e-14   3.2566715296570457e-14   3.3704827242566518e-14   3.3338284157334514e-14   3.4355674554212248e-14   3.4024111602373955e-14   3.4812980231416138e-14   3.4594072311009598e-14   3.4937609930128843e-14   3.5001935951832659e-14   3.4479688494865795e-14   3.5174046028632206e-14   3.3082910036005792e-14   3.4993166973878880e-14   3.0696598553958396e-14   3.4324379326938479e-14   2.9030047856892662e-14   3.3461427781242003e-14   3.0881513284886112e-14   3.5190426499828188e-14   4.3900554978772298e-14   4.4107695558637939e-14   3.7800253231263428e-14   3.7164004569032673e-14   4.4081309860867028e-14   4.0693914457007712e-14   4.4940925495261038e-14   4.2921348954132729e-14   4.4337737328319435e-14   4.4337737328496594e-14   4.3899250386466097e-14   4.4768305756045513e-14   4.3706352202846461e-14   4.4671405725395512e-14   4.3666708380672861e-14   4.4466788745506186e-14   4.3702162043502607e-14   4.4310491589688852e-14   4.3760727284765978e-14   4.4217076401865658e-14   4.3810330815594766e-14   4.4160513624545773e-14   4.3831871821565682e-14   4.4112511587833502e-14   4.3814194937763097e-14   4.4051608630342960e-14   4.3750900469567263e-14   4.3963257675877852e-14   4.3638431931150759e-14   4.3838078894651777e-14   4.34749543