<?xml version="1.0"?>
<VTKFile type="UnstructuredGrid"  version="0.1"  >
<UnstructuredGrid>
<Piece  NumberOfPoints="16641" NumberOfCells="32768">
<Points>
<DataArray  type="Float64"  NumberOfComponents="3"  format="ascii">0 0 0  0.0078125 0 0  0.015625 0 0  0.0234375 0 0  0.03125 0 0  0.0390625 0 0  0.046875 0 0  0.0546875 0 0  0.0625 0 0  0.0703125 0 0  0.078125 0 0  0.0859375 0 0  0.09375 0 0  0.1015625 0 0  0.109375 0 0  0.1171875 0 0  0.125 0 0  0.1328125 0 0  0.140625 0 0  0.1484375 0 0  0.15625 0 0  0.1640625 0 0  0.171875 0 0  0.1796875 0 0  0.1875 0 0  0.1953125 0 0  0.203125 0 0  0.2109375 0 0  0.21875 0 0  0.2265625 0 0  0.234375 0 0  0.2421875 0 0  0.25 0 0  0.2578125 0 0  0.265625 0 0  0.2734375 0 0  0.28125 0 0  0.2890625 0 0  0.296875 0 0  0.3046875 0 0  0.3125 0 0  0.3203125 0 0  0.328125 0 0  0.3359375 0 0  0.34375 0 0  0.3515625 0 0  0.359375 0 0  0.3671875 0 0  0.375 0 0  0.3828125 0 0  0.390625 0 0  0.3984375 0 0  0.40625 0 0  0.4140625 0 0  0.421875 0 0  0.4296875 0 0  0.4375 0 0  0.4453125 0 0  0.453125 0 0  0.4609375 0 0  0.46875 0 0  0.4765625 0 0  0.484375 0 0  0.4921875 0 0  0.5 0 0  0.5078125 0 0  0.515625 0 0  0.5234375 0 0  0.53125 0 0  0.5390625 0 0  0.546875 0 0  0.5546875 0 0  0.5625 0 0  0.5703125 0 0  0.578125 0 0  0.5859375 0 0  0.59375 0 0  0.6015625 0 0  0.609375 0 0  0.6171875 0 0  0.625 0 0  0.6328125 0 0  0.640625 0 0  0.6484375 0 0  0.65625 0 0  0.6640625 0 0  0.671875 0 0  0.6796875 0 0  0.6875 0 0  0.6953125 0 0  0.703125 0 0  0.7109375 0 0  0.71875 0 0  0.7265625 0 0  0.734375 0 0  0.7421875 0 0  0.75 0 0  0.7578125 0 0  0.765625 0 0  0.7734375 0 0  0.78125 0 0  0.7890625 0 0  0.796875 0 0  0.8046875 0 0  0.8125 0 0  0.8203125 0 0  0.828125 0 0  0.8359375 0 0  0.84375 0 0  0.8515625 0 0  0.859375 0 0  0.8671875 0 0  0.875 0 0  0.8828125 0 0  0.890625 0 0  0.8984375 0 0  0.90625 0 0  0.9140625 0 0  0.921875 0 0  0.9296875 0 0  0.9375 0 0  0.9453125 0 0  0.953125 0 0  0.9609375 0 0  0.96875 0 0  0.9765625 0 0  0.984375 0 0  0.9921875 0 0  1 0 0  0 0.0078125 0  0.0078125 0.0078125 0  0.015625 0.0078125 0  0.0234375 0.0078125 0  0.03125 0.0078125 0  0.0390625 0.0078125 0  0.046875 0.0078125 0  0.0546875 0.0078125 0  0.0625 0.0078125 0  0.0703125 0.0078125 0  0.078125 0.0078125 0  0.0859375 0.0078125 0  0.09375 0.0078125 0  0.1015625 0.0078125 0  0.109375 0.0078125 0  0.1171875 0.0078125 0  0.125 0.0078125 0  0.1328125 0.0078125 0  0.140625 0.0078125 0  0.1484375 0.0078125 0  0.15625 0.0078125 0  0.1640625 0.0078125 0  0.171875 0.0078125 0  0.1796875 0.0078125 0  0.1875 0.0078125 0  0.1953125 0.0078125 0  0.203125 0.0078125 0  0.2109375 0.0078125 0  0.21875 0.0078125 0  0.2265625 0.0078125 0  0.234375 0.0078125 0  0.2421875 0.0078125 0  0.25 0.0078125 0  0.2578125 0.0078125 0  0.265625 0.0078125 0  0.2734375 0.0078125 0  0.28125 0.0078125 0  0.2890625 0.0078125 0  0.296875 0.0078125 0  0.3046875 0.0078125 0  0.3125 0.0078125 0  0.3203125 0.0078125 0  0.328125 0.0078125 0  0.3359375 0.0078125 0  0.34375 0.0078125 0  0.3515625 0.0078125 0  0.359375 0.0078125 0  0.3671875 0.0078125 0  0.375 0.0078125 0  0.3828125 0.0078125 0  0.390625 0.0078125 0  0.3984375 0.0078125 0  0.40625 0.0078125 0  0.4140625 0.0078125 0  0.421875 0.0078125 0  0.4296875 0.0078125 0  0.4375 0.0078125 0  0.4453125 0.0078125 0  0.453125 0.0078125 0  0.4609375 0.0078125 0  0.46875 0.0078125 0  0.4765625 0.0078125 0  0.484375 0.0078125 0  0.4921875 0.0078125 0  0.5 0.0078125 0  0.5078125 0.0078125 0  0.515625 0.0078125 0  0.5234375 0.0078125 0  0.53125 0.0078125 0  0.5390625 0.0078125 0  0.546875 0.0078125 0  0.5546875 0.0078125 0  0.5625 0.0078125 0  0.5703125 0.0078125 0  0.578125 0.0078125 0  0.5859375 0.0078125 0  0.59375 0.0078125 0  0.6015625 0.0078125 0  0.609375 0.0078125 0  0.6171875 0.0078125 0  0.625 0.0078125 0  0.6328125 0.0078125 0  0.640625 0.0078125 0  0.6484375 0.0078125 0  0.65625 0.0078125 0  0.6640625 0.0078125 0  0.671875 0.0078125 0  0.6796875 0.0078125 0  0.6875 0.0078125 0  0.6953125 0.0078125 0  0.703125 0.0078125 0  0.7109375 0.0078125 0  0.71875 0.0078125 0  0.7265625 0.0078125 0  0.734375 0.0078125 0  0.7421875 0.0078125 0  0.75 0.0078125 0  0.7578125 0.0078125 0  0.765625 0.0078125 0  0.7734375 0.0078125 0  0.78125 0.0078125 0  0.7890625 0.0078125 0  0.796875 0.0078125 0  0.8046875 0.0078125 0  0.8125 0.0078125 0  0.8203125 0.0078125 0  0.828125 0.0078125 0  0.8359375 0.0078125 0  0.84375 0.0078125 0  0.8515625 0.0078125 0  0.859375 0.0078125 0  0.8671875 0.0078125 0  0.875 0.0078125 0  0.8828125 0.0078125 0  0.890625 0.0078125 0  0.8984375 0.0078125 0  0.90625 0.0078125 0  0.9140625 0.0078125 0  0.921875 0.0078125 0  0.9296875 0.0078125 0  0.9375 0.0078125 0  0.9453125 0.0078125 0  0.953125 0.0078125 0  0.9609375 0.0078125 0  0.96875 0.0078125 0  0.9765625 0.0078125 0  0.984375 0.0078125 0  0.9921875 0.0078125 0  1 0.0078125 0  0 0.015625 0  0.0078125 0.015625 0  0.015625 0.015625 0  0.0234375 0.015625 0  0.03125 0.015625 0  0.0390625 0.015625 0  0.046875 0.015625 0  0.0546875 0.015625 0  0.0625 0.015625 0  0.0703125 0.015625 0  0.078125 0.015625 0  0.0859375 0.015625 0  0.09375 0.015625 0  0.1015625 0.015625 0  0.109375 0.015625 0  0.1171875 0.015625 0  0.125 0.015625 0  0.1328125 0.015625 0  0.140625 0.015625 0  0.1484375 0.015625 0  0.15625 0.015625 0  0.1640625 0.015625 0  0.171875 0.015625 0  0.1796875 0.015625 0  0.1875 0.015625 0  0.1953125 0.015625 0  0.203125 0.015625 0  0.2109375 0.015625 0  0.21875 0.015625 0  0.2265625 0.015625 0  0.234375 0.015625 0  0.2421875 0.015625 0  0.25 0.015625 0  0.2578125 0.015625 0  0.265625 0.015625 0  0.2734375 0.015625 0  0.28125 0.015625 0  0.2890625 0.015625 0  0.296875 0.015625 0  0.3046875 0.015625 0  0.3125 0.015625 0  0.3203125 0.015625 0  0.328125 0.015625 0  0.3359375 0.015625 0  0.34375 0.015625 0  0.3515625 0.015625 0  0.359375 0.015625 0  0.3671875 0.015625 0  0.375 0.015625 0  0.3828125 0.015625 0  0.390625 0.015625 0  0.3984375 0.015625 0  0.40625 0.015625 0  0.4140625 0.015625 0  0.421875 0.015625 0  0.4296875 0.015625 0  0.4375 0.015625 0  0.4453125 0.015625 0  0.453125 0.015625 0  0.4609375 0.015625 0  0.46875 0.015625 0  0.4765625 0.015625 0  0.484375 0.015625 0  0.4921875 0.015625 0  0.5 0.015625 0  0.5078125 0.015625 0  0.515625 0.015625 0  0.5234375 0.015625 0  0.53125 0.015625 0  0.5390625 0.015625 0  0.546875 0.015625 0  0.5546875 0.015625 0  0.5625 0.015625 0  0.5703125 0.015625 0  0.578125 0.015625 0  0.5859375 0.015625 0  0.59375 0.015625 0  0.6015625 0.015625 0  0.609375 0.015625 0  0.6171875 0.015625 0  0.625 0.015625 0  0.6328125 0.015625 0  0.640625 0.015625 0  0.6484375 0.015625 0  0.65625 0.015625 0  0.6640625 0.015625 0  0.671875 0.015625 0  0.6796875 0.015625 0  0.6875 0.015625 0  0.6953125 0.015625 0  0.703125 0.015625 0  0.7109375 0.015625 0  0.71875 0.015625 0  0.7265625 0.015625 0  0.734375 0.015625 0  0.7421875 0.015625 0  0.75 0.015625 0  0.7578125 0.015625 0  0.765625 0.015625 0  0.7734375 0.015625 0  0.78125 0.015625 0  0.7890625 0.015625 0  0.796875 0.015625 0  0.8046875 0.015625 0  0.8125 0.015625 0  0.8203125 0.015625 0  0.828125 0.015625 0  0.8359375 0.015625 0  0.84375 0.015625 0  0.8515625 0.015625 0  0.859375 0.015625 0  0.8671875 0.015625 0  0.875 0.015625 0  0.8828125 0.015625 0  0.890625 0.015625 0  0.8984375 0.015625 0  0.90625 0.015625 0  0.9140625 0.015625 0  0.921875 0.015625 0  0.9296875 0.015625 0  0.9375 0.015625 0  0.9453125 0.015625 0  0.953125 0.015625 0  0.9609375 0.015625 0  0.96875 0.015625 0  0.9765625 0.015625 0  0.984375 0.015625 0  0.9921875 0.015625 0  1 0.015625 0  0 0.0234375 0  0.0078125 0.0234375 0  0.015625 0.0234375 0  0.0234375 0.0234375 0  0.03125 0.0234375 0  0.0390625 0.0234375 0  0.046875 0.0234375 0  0.0546875 0.0234375 0  0.0625 0.0234375 0  0.0703125 0.0234375 0  0.078125 0.0234375 0  0.0859375 0.0234375 0  0.09375 0.0234375 0  0.1015625 0.0234375 0  0.109375 0.0234375 0  0.1171875 0.0234375 0  0.125 0.0234375 0  0.1328125 0.0234375 0  0.140625 0.0234375 0  0.1484375 0.0234375 0  0.15625 0.0234375 0  0.1640625 0.0234375 0  0.171875 0.0234375 0  0.1796875 0.0234375 0  0.1875 0.0234375 0  0.1953125 0.0234375 0  0.203125 0.0234375 0  0.2109375 0.0234375 0  0.21875 0.0234375 0  0.2265625 0.0234375 0  0.234375 0.0234375 0  0.2421875 0.0234375 0  0.25 0.0234375 0  0.2578125 0.0234375 0  0.265625 0.0234375 0  0.2734375 0.0234375 0  0.28125 0.0234375 0  0.2890625 0.0234375 0  0.296875 0.0234375 0  0.3046875 0.0234375 0  0.3125 0.0234375 0  0.3203125 0.0234375 0  0.328125 0.0234375 0  0.3359375 0.0234375 0  0.34375 0.0234375 0  0.3515625 0.0234375 0  0.359375 0.0234375 0  0.3671875 0.0234375 0  0.375 0.0234375 0  0.3828125 0.0234375 0  0.390625 0.0234375 0  0.3984375 0.0234375 0  0.40625 0.0234375 0  0.4140625 0.0234375 0  0.421875 0.0234375 0  0.4296875 0.0234375 0  0.4375 0.0234375 0  0.4453125 0.0234375 0  0.453125 0.0234375 0  0.4609375 0.0234375 0  0.46875 0.0234375 0  0.4765625 0.0234375 0  0.484375 0.0234375 0  0.4921875 0.0234375 0  0.5 0.0234375 0  0.5078125 0.0234375 0  0.515625 0.0234375 0  0.5234375 0.0234375 0  0.53125 0.0234375 0  0.5390625 0.0234375 0  0.546875 0.0234375 0  0.5546875 0.0234375 0  0.5625 0.0234375 0  0.5703125 0.0234375 0  0.578125 0.0234375 0  0.5859375 0.0234375 0  0.59375 0.0234375 0  0.6015625 0.0234375 0  0.609375 0.0234375 0  0.6171875 0.0234375 0  0.625 0.0234375 0  0.6328125 0.0234375 0  0.640625 0.0234375 0  0.6484375 0.0234375 0  0.65625 0.0234375 0  0.6640625 0.0234375 0  0.671875 0.0234375 0  0.6796875 0.0234375 0  0.6875 0.0234375 0  0.6953125 0.0234375 0  0.703125 0.0234375 0  0.7109375 0.0234375 0  0.71875 0.0234375 0  0.7265625 0.0234375 0  0.734375 0.0234375 0  0.7421875 0.0234375 0  0.75 0.0234375 0  0.7578125 0.0234375 0  0.765625 0.0234375 0  0.7734375 0.0234375 0  0.78125 0.0234375 0  0.7890625 0.0234375 0  0.796875 0.0234375 0  0.8046875 0.0234375 0  0.8125 0.0234375 0  0.8203125 0.0234375 0  0.828125 0.0234375 0  0.8359375 0.0234375 0  0.84375 0.0234375 0  0.8515625 0.0234375 0  0.859375 0.0234375 0  0.8671
[...]
<CellData  Scalars="f_31644"> 
<DataArray  type="Float64"  Name="f_31644"  format="ascii">1.4845755395139303e-07   1.4845755395139263e-07   1.4821779389244580e-07   1.4830677039189612e-07   1.4780036655879567e-07   1.4797809772603033e-07   1.4720625625331879e-07   1.4747230695505547e-07   1.4643687497940130e-07   1.4679059777590479e-07   1.4549405793710097e-07   1.4593459459363687e-07   1.4438005861128491e-07   1.4490634212056647e-07   1.4309754310641046e-07   1.4370830021637068e-07   1.4164958360616777e-07   1.4234333784661724e-07   1.4003965091512993e-07   1.4081472611574191e-07   1.3827160607270384e-07   1.3912613036379921e-07   1.3634969104554487e-07   1.3728160133180280e-07   1.3427851851320358e-07   1.3528556540960525e-07   1.3206306076725808e-07   1.3314281398520591e-07   1.2970863774807199e-07   1.3085849191869749e-07   1.2722090424634833e-07   1.2843808516694399e-07   1.2460583629927306e-07   1.2588740758775176e-07   1.2186971681335269e-07   1.2321258695464267e-07   1.1901912044807866e-07   1.2042005021551386e-07   1.1606089779656166e-07   1.1751650803024872e-07   1.1300215890098075e-07   1.1450893862447808e-07   1.0985025614248937e-07   1.1140457099811799e-07   1.0661276654660152e-07   1.0821086752915872e-07   1.0329747354670143e-07   1.0493550601431080e-07   9.9912348249507299e-08   1.0158636119008407e-07   9.6465530247644324e-08   9.8171485778430847e-08   9.2965308025518553e-08   9.4699091102957377e-08   8.9420099005687606e-08   9.1177527322002317e-08   8.5838429283814005e-08   8.7615263326599528e-08   8.2228913101037865e-08   8.4020866351518434e-08   7.8600232103230920e-08   8.0402981348582757e-08   7.4961114437125205e-08   7.6770310172013338e-08   7.1320313733668496e-08   7.3131590625883991e-08   6.7686588029316581e-08   6.9495575424318874e-08   6.4068678676046231e-08   6.5871011114996430e-08   6.0475289290859580e-08   6.2266617016880928e-08   5.6915064795622135e-08   5.8691064222833629e-08   5.3396570597691118e-08   5.5152954717876023e-08   4.9928271961546348e-08   5.1660800663245642e-08   4.6518513621102838e-08   4.8223003896383885e-08   4.3175499681924625e-08   4.4847835696047474e-08   3.9907273861693948e-08   4.1543416861550712e-08   3.6721700116664998e-08   3.8317698153961145e-08   3.3626443700679423e-08   3.5178441146512286e-08   3.0628952702510108e-08   3.2133199530353779e-08   2.7736440105991432e-08   2.9189300920658514e-08   2.4955866416149384e-08   2.6353829207094130e-08   2.2293922893263863e-08   2.3633607490928824e-08   1.9757015435253029e-08   2.1035181650214066e-08   1.7351249147195610e-08   1.8564804572455767e-08   1.5082413635250310e-08   1.6228421092774576e-08   1.2955969060366684e-08   1.4031653674027478e-08   1.0977032985431351e-08   1.1979788863219658e-08   9.1503680475324523e-09   1.0077764556957257e-08   7.4803704850777267e-09   8.3301581066182356e-09   5.9710595474126975e-09   6.7411752918992302e-09   4.6260678124522972e-09   5.3146401893177575e-09   3.4486324356763940e-09   4.0539859601102282e-09   2.4415873515914897e-09   2.9622465796958745e-09   1.6073564464386787e-09   2.0420495286926995e-09   9.4794771860724270e-10   1.2956094630457993e-09   4.6494844084125862e-10   7.2472287856974823e-10   1.5952133588753588e-10   3.3076378274715779e-10   3.2401774807861140e-11   1.1468038422045596e-10   8.3896004712421978e-11   7.6992807950899324e-11   3.1388041017904347e-10   2.1779184156565953e-10   7.2180181014722877e-10   5.3673871590797270e-10   1.3066787895632787e-09   1.0330659203111062e-09   2.0671040625743431e-09   1.7055790506574166e-09   3.0012478615742113e-09   2.5526596857405515e-09   4.1068623439269607e-09   3.5722692850067528e-09   5.3812870057549056e-09   4.7619540983092455e-09   6.8214550897419941e-09   6.1188510757931365e-09   8.4239009714966644e-09   7.6396947637120576e-09   1.0184768506690811e-08   9.3208251695081358e-09   1.2099820318833465e-08   1.1158196577279937e-08   1.4164448005316191e-08   1.3147387292287098e-08   1.6373683237105929e-08   1.5283610291074264e-08   1.8722209725355372e-08   1.7561724751530016e-08   2.1204376026072160e-08   1.9976248435118181e-08   2.3814209151987576e-08   2.2521370891317807e-08   2.6545428958794307e-08   2.5190967452622507e-08   2.9391463271152704e-08   2.7978613986235617e-08   3.2345463711895023e-08   3.0877602366959851e-08   3.5400322196354906e-08   3.3880956633962507e-08   3.8548688052034891e-08   3.6981449792443136e-08   4.1782985722351202e-08   4.0171621219850881e-08   4.5095433011783436e-08   4.3443794634464221e-08   4.8478059828444189e-08   4.6790096583222235e-08   5.1922727378875889e-08   5.0202475404146555e-08   5.5421147768884722e-08   5.3672720617658566e-08   5.8964903963018695e-08   5.7192482700053052e-08   6.2545470054717911e-08   6.0753293191497492e-08   6.6154231798200944e-08   6.4346585089989697e-08   6.9782507352592759e-08   6.7963713482232589e-08   7.3421568188348683e-08   7.1595976361660616e-08   7.7062660105467689e-08   7.5234635583297193e-08   8.0697024312940113e-08   7.8870937905176996e-08   8.4315918518549910e-08   8.2496136065369149e-08   8.7910637978166385e-08   8.6101509843949130e-08   9.1472536453857643e-08   8.9678387059019209e-08   9.4993047030215856e-08   9.3218164446317311e-08   9.8463702738749584e-08   9.6712328371848547e-08   1.0187615694059475e-07   1.0015247532784546e-07   1.0522220341839700e-07   1.0353033216238925e-07   1.0849379612892649e-07   1.0683777599417407e-07   1.1168306856876959e-07   1.1006685376405199e-07   1.1478235270638030e-07   1.1320980137659401e-07   1.1778419743484447e-07   1.1625906238509716e-07   1.2068138650076825e-07   1.1920730617523034e-07   1.2346695586610098e-07   1.2204744560328419e-07   1.2613421046086910e-07   1.2477265404646607e-07   1.2867674028636087e-07   1.2737638182402941e-07   1.3108843582981778e-07   1.2985237194947024e-07   1.3336350275327929e-07   1.3219467517570405e-07   1.3549647582079376e-07   1.3439766429656501e-07   1.3748223203017648e-07   1.3645604766977981e-07   1.3931600291686849e-07   1.3836488192825946e-07   1.4099338599944765e-07   1.4011958384804275e-07   1.4251035533758476e-07   1.4171594134275926e-07   1.4386327117457831e-07   1.4315012355572636e-07   1.4504888863678450e-07   1.4441869002080088e-07   1.4606436546091370e-07   1.4551859886186041e-07   1.4690726871416378e-07   1.4644721399467743e-07   1.4757558045521420e-07   1.4720231127786086e-07   1.4806770223331841e-07   1.4778208350853407e-07   1.4838245815446242e-07   1.4818514398936271e-07   1.4851909553238518e-07   1.4841052767968591e-07   1.4830677039189569e-07   1.4821779389244538e-07   1.4806761330824175e-07   1.4806761330824135e-07   1.4765112717485390e-07   1.4774009576828281e-07   1.4705830333901311e-07   1.4723601884205644e-07   1.4629055501297321e-07   1.4655658244471464e-07   1.4534971578388369e-07   1.4570340786522008e-07   1.4423803575847294e-07   1.4467853442536949e-07   1.4295817635593961e-07   1.4348441478280195e-07   1.4151320399119393e-07   1.4212390911909548e-07   1.3990658273889249e-07   1.4060027830251467e-07   1.3814216602327465e-07   1.3891717606884279e-07   1.3622418736357455e-07   1.3707864024960732e-07   1.3415725020143622e-07   1.3508908307230309e-07   1.3194631683593580e-07   1.3295328055752256e-07   1.2959669649347642e-07   1.3067636103901257e-07   1.2711403256135382e-07   1.2826379283435940e-07   1.2450428901570675e-07   1.2572137109601615e-07   1.2177373607644818e-07   1.2305520387423100e-07   1.1892893512380748e-07   1.2027169742546282e-07   1.1597672291250774e-07   1.1737754080155405e-07   1.1292419512182971e-07   1.1437968975671996e-07   1.0977868928097809e-07   1.1128535001122695e-07   1.0654776711099410e-07   1.0810195991184927e-07   1.0323919632553570e-07   1.0483717253105239e-07   9.9860931934702324e-08   1.0149883724800943e-07   9.6421097096577341e-08   9.8094980855628743e-08   9.2927963563011069e-08   9.4633788239437789e-08   8.9389931766333547e-08   9.1123582674592744e-08   8.5815510595425584e-08   8.7572805788689232e-08   8.2213296909617920e-08   8.3989997238644613e-08   7.8591954839847102e-08   8.0383774150429651e-08   7.4960194927025607e-08   7.6762810371618880e-08   7.1326753147831911e-08   7.3135815586279550e-08   6.7700369878552690e-08   6.9511514343003760e-08   6.4089768847602980e-08   6.5898625046218448e-08   6.0503636127534535e-08   6.2305838961785064e-08   5.6950599217091056e-08   5.8741799287231959e-08   5.3439206263853092e-08   5.5215080337168526e-08   4.9977905477379073e-08   5.1734166894064080e-08   4.6575024782677501e-08   4.8307433774216092e-08   4.3238751762839041e-08   4.4943125657931172e-08   3.9977113939377870e-08   4.1649337232909486e-08   3.6797959437649159e-08   3.8433993698380041e-08   3.3708938084041690e-08   3.5304831677030463e-08   3.0717482980524491e-08   3.2269380580984224e-08   2.7830792600832021e-08   2.9334944476472331e-08   2.5055813451661459e-08   2.6508584490895843e-08   2.2399223340406345e-08   2.3797101805019756e-08   1.9867415290012195e-08   2.1207021270862763e-08   1.7466482139579225e-08   1.8744575695149577e-08   1.5202201867825496e-08   1.6415690825860313e-08   1.3080023674898340e-08   1.4225971078426935e-08   1.1105054855949646e-08   1.2180686035655234e-08   9.2820484982062065e-09   1.0284757754135773e-08   7.6153920311528973e-09   8.5427489076374481e-09   6.1090966574330422e-09   6.9588517960727784e-09   4.7667876899303705e-09   5.5368782465688088e-09   3.5916958183520142e-09   4.2802504309491277e-09   2.5866493263283509e-09   3.1919926217515536e-09   1.7540672778248543e-09   2.2747239067009233e-09   1.0959536892501594e-09   1.5306518791566517e-09   6.1389270134072336e-10   9.6156731974330877e-10   3.0904476244356423e-10   5.6883988201577417e-10   1.8214383240163490e-10   3.5341479253118380e-10   2.3349561377362665e-10   3.1581057328667915e-10   4.6297681466178504e-10   4.5611779202328590e-10   8.7003544492179411e-10   7.7399884339297764e-10   1.4536921450379193e-09   1.2686887615382808e-09   2.2125425444639154e-09   1.9389970621032268e-09   3.1447606437421479e-09   2.7833106092541424e-09   4.2481032122461096e-09   3.7995975007904389e-09   5.5199151909686322e-09   4.9854119619829464e-09   6.9571360872921907e-09   6.3379002363575896e-09   8.5563073463814738e-09   7.8538074592024333e-09   1.0313580681350557e-08   9.5294854972478210e-09   1.2224727342249301e-08   1.1360901735618541e-08   1.4285148301399091e-08   1.3343648790909666e-08   1.6489885330596698e-08   1.5472955126865181e-08   1.8833632943482938e-08   1.7743696547272751e-08   2.1310751174304307e-08   2.0150408538161241e-08   2.3915279162158627e-08   2.2687299429657664e-08   2.6640949508183102e-08   2.5348264345769657e-08   2.9481203370891299e-08   2.8126899908572844e-08   3.2429206263338611e-08   3.1016519661046966e-08   3.5477864514090294e-08   3.4010170171738649e-08   3.8619842352195578e-08   3.7100647782266637e-08   4.1847579575173342e-08   4.0280515957320379e-08   4.5153309757180238e-08   4.3542123195277712e-08   4.8529078953676595e-08   4.6877621456369288e-08   5.1966764857399309e-08   5.0278985063978021e-08   5.5458096359508269e-08   5.3738030033312566e-08   5.8994673468670475e-08   5.7246433781120533e-08   6.2567987540257268e-08   6.0795755168823310e-08   6.6169441766612317e-08   6.4377454830671474e-08   6.9790371879259203e-08   6.7982915738058297e-08   7.3422067013029788e-08   7.1603463950379961e-08   7.7055790681708929e-08   7.5230389502289295e-08   8.0682801814890563e-08   7.8854967377227340e-08   8.4294375805055739e-08   8.2468478516478083e-08   8.7881825514344180e-08   8.6062230813147018e-08   9.1436522190213861e-08   8.9627580040503235e-08   9.4949916239698955e-08   9.3155950664198260e-08   9.8413557812032836e-08   9.6638856488062730e-08   1.0181911714018003e-07   1.0006792108399306e-07   1.0515840459203380e-07   1.0343489795629397e-07   1.0842339038314871e-07   1.0673169039220965e-07   1.1160622390316733e-07   1.0995037095043033e-07   1.1469925260970553e-07   1.1308320054087792e-07   1.1769504044372411e-07   1.1612264704950516e-07   1.2058638572224828e-07   1.1906140346330377e-07   1.2336633846507247e-07   1.2189240545169581e-07   1.2602821711367544e-07   1.2460884836189113e-07   1.2856562460194447e-07   1.2720420358712314e-07   1.3097246373976909e-07   1.2967223426816584e-07   1.3324295187232949e-07   1.3200701029012115e-07   1.3537163477938829e-07   1.3420292253798385e-07   1.3735339978075303e-07   1.3625469637637820e-07   1.3918348801579214e-07   1.3815740432027935e-07   1.4085750586653229e-07   1.3990647786544831e-07   1.4237143549547969e-07   1.4149771844872976e-07   1.4372164447086689e-07   1.4292730750973296e-07   1.4490489445250562e-07   1.4419181562625163e-07   1.4591834891145884e-07   1.4528821069533932e-07   1.4675957985377473e-07   1.4621386512930289e-07   1.4742657351028367e-07   1.4696656202745966e-07   1.4791773493199520e-07   1.4754450026223015e-07   1.4823189137346601e-07   1.4794629836173875e-07   1.4836829424705887e-07   1.4817099697514358e-07   1.4797809772603030e-07   1.4780036655879509e-07   1.4774009576828360e-07   1.4765112717485419e-07   1.4732554012257891e-07   1.4732554012257856e-07   1.4673541943729554e-07   1.4682438031129032e-07   1.4597114216957538e-07   1.4614884242377096e-07   1.4503453485935813e-07   1.4530053970955543e-07   1.4392783839890473e-07   1.4428150077097728e-07   1.4265370294525267e-07   1.4309416498922967e-07   1.4121518170320207e-07   1.4174137681703613e-07   1.3961572367187942e-07   1.4022637902985174e-07   1.3785916540473943e-07   1.3855280498431310e-07   1.3594972181852075e-07   1.3672466991832244e-07   1.3389197608072564e-07   1.3474636132099615e-07   1.3169086860397868e-07   1.3262262839992238e-07   1.2935168517595966e-07   1.3035857067311380e-07   1.2688004425460051e-07   1.2795962571430951e-07   1.2428188345979185e-07   1.2543155608176844e-07   1.2156344529455972e-07   1.2278043546248526e-07   1.1873126213029710e-07   1.2001263406540082e-07   1.1579214049240132e-07   1.1713480329887160e-07   1.1275314468420236e-07   1.1415385976955847e-07   1.0962157978883030e-07   1.1107696864120124e-07   1.0640497408982299e-07   1.0791152639350703e-07   1.0311106095304453e-07   1.0466514302266624e-07   9.9747760213591035e-08   1.0134562372650788e-07   9.6323159112340566e-08   9.7960950118323306e-08   9.2845492828438635e-08   9.4519261014766611e-08   8.9323124654351836e-08   9.1028832844087814e-08   8.5764525861476009e-08   8.7498059721884924e-08   8.2178255304790441e-08   8.3935433242586821e-08   7.8572938815543715e-08   8.0349522035084278e-08   7.4957248432064929e-08   7.6748951132125495e-08   7.1339881518226583e-08   7.3142381202908807e-08   6.7729539820421164e-08   6.9538487699199615e-08   6.4134908513092083e-08   6.5945939965009249e-08   6.0564635283690776e-08   6.2373380360417959e-08   5.7027309507213580e-08   5.8829403449580885e-08   5.3531441560649913e-08   5.5322535303433254e-08   5.0085442327179913e-08   5.1861212966699597e-08   4.6697602939598400e-08   4.8453764138850679e-08   4.3376074811529510e-08   4.5108387117911847e-08   4.0128850004986079e-08   4.1833131055577935e-08   3.6963741981241678e-08   3.8635876571009543e-08   3.3888366781493134e-08   3.5524316770429315e-08   3.0910124682875199e-08   3.2505938717762935e-08   2.8036182373823167e-08   2.9588005401446833e-08   2.5273455691721535e-08   2.6777538240588636e-08   2.2628592964744890e-08   2.4081300172765861e-08   2.0107958997654424e-08   2.1505779364186408e-08   1.7717619740524968e-08   1.9057173581541331e-08   1.5463327676965989e-08   1.6741375263102397e-08   1.3350507967470266e-08   1.4563957325154578e-08   1.1384245380945501e-08   1.2530159737948413e-08   9.5692720461357342e-09   1.0644876903480873e-08   7.9099560523645994e-09   8.9126458656498756e-09   6.4102909270925334e-09   7.3376353809907498e-09   5.0738860156781006e-09   5.9236358765988276e-09   3.9039577865125235e-09   4.6740503192287006e-09   2.9033220824580586e-09   3.5918860176850248e-09   2.0743873373212716e-09   2.6797473782604022e-09   1.4191487736701401e-09   1.9398296306376054e-09   9.3918359598704655e-10   1.3739135394041064e-09   6.3564719076425498e-10   9.8336111395276692e-10   5.0927034267850720e-10   7.6911232705635028e-10   5.6035747355718540e-10   7.3168285007201629e-10   7.8878590839602803e-10   8.7116281019868095e-10   1.1940061701783106e-09   1.1872165728260768e-09   1.7750433028009245e-09   1.6790835494446583e-09   2.5304992188981914e-09   2.3455800292153774e-09   3.4585560669361463e-09   3.1851020297746018e-09   4.5569806094248069e-09   4.1956291603844188e-09   5.8231296017171511e-09   5.3747294881354242e-09   7.2539561584380554e-09   6.7195653954697572e-09   8.8460170921671446e-09   8.2269004149018898e-09   1.0595481206718878e-08   9.8931070244839430e-09   1.2498138525007371e-08   1.1714175385163048e-08   1.4549410429287541e-08   1.3685722999072107e-08   1.6744360689231619e-08   1.5803005265372833e-08   1.9077707351452783e-08   1.8060926908290365e-08   2.1543835461599678e-08   2.0454054249726978e-08   2.4136810588489188e-08   2.2976628296924258e-08   2.6850393117630736e-08   2.5622578613603956e-08   2.9678053279783694e-08   2.8385537941155349e-08   3.2612986878103133e-08   3.1258857534614314e-08   3.5648131676200432e-08   3.4235623176502395e-08   3.8776184407514785e-08   3.7308671829888872e-08   4.1989618365002840e-08   4.0470608890599385e-08   4.5280701528677951e-08   4.3713825996845035e-08   4.8641515187435958e-08   4.7030519353499640e-08   5.2063973010280323e-08   5.0412708526844715e-08   5.5539840520710773e-08   5.3852255664245947e-08   5.9060754927708914e-08   5.7340885092840320e-08   6.2618245265296795e-08   6.0870203249571624e-08   6.6203752792112815e-08   6.4431718894806585e-08   6.9808651601922832e-08   6.8016863560726969e-08   7.3424269395351363e-08   7.1617012185162252e-08   7.7041908362665276e-08   7.5223503881142894e-08   8.0652866127445892e-08   7.8827662792161558e-08   8.4248456700537369e-08   8.2420818982827015e-08   8.7820031393728239e-08   8.5994329314487979e-08   9.1358999642831211e-08   8.9539598255574170e-08   9.4856849689977576e-08   9.3048098576499715e-08   9.8305169075078033e-08   9.6511391879166173e-08   1.0169566488733139e-07   9.9921148911563430e-08   1.0502018372762393e-07   1.0326916961856992e-07   1.0827073133402449e-07   1.0654740288054555e-07   1.1143949182268303e-07   1.0974796589204422e-07   1.1451884649806704e-07   1.1286316313410893e-07   1.1750139218689894e-07   1.1588550489410045e-07   1.2037995905171859e-07   1.1880772528864307e-07   1.2314762784098535e-07   1.2162279974603686e-07   1.2579774653414634e-07   1.2432396190596221e-07   1.2832394634137685e-07   1.2690471989565838e-07   1.3072015701937925e-07   1.2935887194321891e-07   1.3298062146615055e-07   1.3168052129022373e-07   1.3509990955928183e-07   1.3386409036755806e-07   1.3707293120421524e-07   1.3590433419990379e-07   1.3889494856051092e-07   1.3779635300623039e-07   1.4056158741608990e-07   1.3953560396528190e-07   1.4206884768112296e-07   1.4111791211676188e-07   1.4341311297484074e-07   1.4253948037060780e-07   1.4459115927998740e-07   1.4379689859795039e-07   1.4560016264033458e-07   1.4488715177823122e-07   1.4643770587636138e-07   1.4580762717650907e-07   1.4710178429156351e-07   1.4655612052243284e-07   1.4759081033627249e-07   1.4713084115692794e-07   1.4790361719716363e-07   1.4753041611445128e-07   1.4803946137390991e-07   1.4775389320299547e-07   1.4747230695505446e-07   1.4720625625331796e-07   1.4723601884205665e-07   1.4705830333901306e-07   1.4682438031129005e-07   1.4673541943729366e-07   1.4623837301207889e-07   1.4623837301207789e-07   1.4547939621357156e-07   1.4556834959578513e-07   1.4454926444556592e-07   1.4472694994907866e-07   1.4345020367859242e-07   1.4371618675860509e-07   1.4218484626251531e-07   1.4253848009148284e-07   1.4075622476377015e-07   1.4119665174583085e-07   1.3916776477612441e-07   1.3969391857094221e-07   1.3742327675034387e-07   1.3803388480157990e-07   1.3552694687700752e-07   1.3622053343900512e-07   1.3348332705163719e-07   1.3425821670720276e-07   1.3129732395090573e-07   1.3215164561154573e-07   1.28974187