<?xml version="1.0"?>
<VTKFile type="UnstructuredGrid"  version="0.1"  >
<UnstructuredGrid>
<Piece  NumberOfPoints="16641" NumberOfCells="32768">
<Points>
<DataArray  type="Float64"  NumberOfComponents="3"  format="ascii">0 0 0  0.0078125 0 0  0.015625 0 0  0.0234375 0 0  0.03125 0 0  0.0390625 0 0  0.046875 0 0  0.0546875 0 0  0.0625 0 0  0.0703125 0 0  0.078125 0 0  0.0859375 0 0  0.09375 0 0  0.1015625 0 0  0.109375 0 0  0.1171875 0 0  0.125 0 0  0.1328125 0 0  0.140625 0 0  0.1484375 0 0  0.15625 0 0  0.1640625 0 0  0.171875 0 0  0.1796875 0 0  0.1875 0 0  0.1953125 0 0  0.203125 0 0  0.2109375 0 0  0.21875 0 0  0.2265625 0 0  0.234375 0 0  0.2421875 0 0  0.25 0 0  0.2578125 0 0  0.265625 0 0  0.2734375 0 0  0.28125 0 0  0.2890625 0 0  0.296875 0 0  0.3046875 0 0  0.3125 0 0  0.3203125 0 0  0.328125 0 0  0.3359375 0 0  0.34375 0 0  0.3515625 0 0  0.359375 0 0  0.3671875 0 0  0.375 0 0  0.3828125 0 0  0.390625 0 0  0.3984375 0 0  0.40625 0 0  0.4140625 0 0  0.421875 0 0  0.4296875 0 0  0.4375 0 0  0.4453125 0 0  0.453125 0 0  0.4609375 0 0  0.46875 0 0  0.4765625 0 0  0.484375 0 0  0.4921875 0 0  0.5 0 0  0.5078125 0 0  0.515625 0 0  0.5234375 0 0  0.53125 0 0  0.5390625 0 0  0.546875 0 0  0.5546875 0 0  0.5625 0 0  0.5703125 0 0  0.578125 0 0  0.5859375 0 0  0.59375 0 0  0.6015625 0 0  0.609375 0 0  0.6171875 0 0  0.625 0 0  0.6328125 0 0  0.640625 0 0  0.6484375 0 0  0.65625 0 0  0.6640625 0 0  0.671875 0 0  0.6796875 0 0  0.6875 0 0  0.6953125 0 0  0.703125 0 0  0.7109375 0 0  0.71875 0 0  0.7265625 0 0  0.734375 0 0  0.7421875 0 0  0.75 0 0  0.7578125 0 0  0.765625 0 0  0.7734375 0 0  0.78125 0 0  0.7890625 0 0  0.796875 0 0  0.8046875 0 0  0.8125 0 0  0.8203125 0 0  0.828125 0 0  0.8359375 0 0  0.84375 0 0  0.8515625 0 0  0.859375 0 0  0.8671875 0 0  0.875 0 0  0.8828125 0 0  0.890625 0 0  0.8984375 0 0  0.90625 0 0  0.9140625 0 0  0.921875 0 0  0.9296875 0 0  0.9375 0 0  0.9453125 0 0  0.953125 0 0  0.9609375 0 0  0.96875 0 0  0.9765625 0 0  0.984375 0 0  0.9921875 0 0  1 0 0  0 0.0078125 0  0.0078125 0.0078125 0  0.015625 0.0078125 0  0.0234375 0.0078125 0  0.03125 0.0078125 0  0.0390625 0.0078125 0  0.046875 0.0078125 0  0.0546875 0.0078125 0  0.0625 0.0078125 0  0.0703125 0.0078125 0  0.078125 0.0078125 0  0.0859375 0.0078125 0  0.09375 0.0078125 0  0.1015625 0.0078125 0  0.109375 0.0078125 0  0.1171875 0.0078125 0  0.125 0.0078125 0  0.1328125 0.0078125 0  0.140625 0.0078125 0  0.1484375 0.0078125 0  0.15625 0.0078125 0  0.1640625 0.0078125 0  0.171875 0.0078125 0  0.1796875 0.0078125 0  0.1875 0.0078125 0  0.1953125 0.0078125 0  0.203125 0.0078125 0  0.2109375 0.0078125 0  0.21875 0.0078125 0  0.2265625 0.0078125 0  0.234375 0.0078125 0  0.2421875 0.0078125 0  0.25 0.0078125 0  0.2578125 0.0078125 0  0.265625 0.0078125 0  0.2734375 0.0078125 0  0.28125 0.0078125 0  0.2890625 0.0078125 0  0.296875 0.0078125 0  0.3046875 0.0078125 0  0.3125 0.0078125 0  0.3203125 0.0078125 0  0.328125 0.0078125 0  0.3359375 0.0078125 0  0.34375 0.0078125 0  0.3515625 0.0078125 0  0.359375 0.0078125 0  0.3671875 0.0078125 0  0.375 0.0078125 0  0.3828125 0.0078125 0  0.390625 0.0078125 0  0.3984375 0.0078125 0  0.40625 0.0078125 0  0.4140625 0.0078125 0  0.421875 0.0078125 0  0.4296875 0.0078125 0  0.4375 0.0078125 0  0.4453125 0.0078125 0  0.453125 0.0078125 0  0.4609375 0.0078125 0  0.46875 0.0078125 0  0.4765625 0.0078125 0  0.484375 0.0078125 0  0.4921875 0.0078125 0  0.5 0.0078125 0  0.5078125 0.0078125 0  0.515625 0.0078125 0  0.5234375 0.0078125 0  0.53125 0.0078125 0  0.5390625 0.0078125 0  0.546875 0.0078125 0  0.5546875 0.0078125 0  0.5625 0.0078125 0  0.5703125 0.0078125 0  0.578125 0.0078125 0  0.5859375 0.0078125 0  0.59375 0.0078125 0  0.6015625 0.0078125 0  0.609375 0.0078125 0  0.6171875 0.0078125 0  0.625 0.0078125 0  0.6328125 0.0078125 0  0.640625 0.0078125 0  0.6484375 0.0078125 0  0.65625 0.0078125 0  0.6640625 0.0078125 0  0.671875 0.0078125 0  0.6796875 0.0078125 0  0.6875 0.0078125 0  0.6953125 0.0078125 0  0.703125 0.0078125 0  0.7109375 0.0078125 0  0.71875 0.0078125 0  0.7265625 0.0078125 0  0.734375 0.0078125 0  0.7421875 0.0078125 0  0.75 0.0078125 0  0.7578125 0.0078125 0  0.765625 0.0078125 0  0.7734375 0.0078125 0  0.78125 0.0078125 0  0.7890625 0.0078125 0  0.796875 0.0078125 0  0.8046875 0.0078125 0  0.8125 0.0078125 0  0.8203125 0.0078125 0  0.828125 0.0078125 0  0.8359375 0.0078125 0  0.84375 0.0078125 0  0.8515625 0.0078125 0  0.859375 0.0078125 0  0.8671875 0.0078125 0  0.875 0.0078125 0  0.8828125 0.0078125 0  0.890625 0.0078125 0  0.8984375 0.0078125 0  0.90625 0.0078125 0  0.9140625 0.0078125 0  0.921875 0.0078125 0  0.9296875 0.0078125 0  0.9375 0.0078125 0  0.9453125 0.0078125 0  0.953125 0.0078125 0  0.9609375 0.0078125 0  0.96875 0.0078125 0  0.9765625 0.0078125 0  0.984375 0.0078125 0  0.9921875 0.0078125 0  1 0.0078125 0  0 0.015625 0  0.0078125 0.015625 0  0.015625 0.015625 0  0.0234375 0.015625 0  0.03125 0.015625 0  0.0390625 0.015625 0  0.046875 0.015625 0  0.0546875 0.015625 0  0.0625 0.015625 0  0.0703125 0.015625 0  0.078125 0.015625 0  0.0859375 0.015625 0  0.09375 0.015625 0  0.1015625 0.015625 0  0.109375 0.015625 0  0.1171875 0.015625 0  0.125 0.015625 0  0.1328125 0.015625 0  0.140625 0.015625 0  0.1484375 0.015625 0  0.15625 0.015625 0  0.1640625 0.015625 0  0.171875 0.015625 0  0.1796875 0.015625 0  0.1875 0.015625 0  0.1953125 0.015625 0  0.203125 0.015625 0  0.2109375 0.015625 0  0.21875 0.015625 0  0.2265625 0.015625 0  0.234375 0.015625 0  0.2421875 0.015625 0  0.25 0.015625 0  0.2578125 0.015625 0  0.265625 0.015625 0  0.2734375 0.015625 0  0.28125 0.015625 0  0.2890625 0.015625 0  0.296875 0.015625 0  0.3046875 0.015625 0  0.3125 0.015625 0  0.3203125 0.015625 0  0.328125 0.015625 0  0.3359375 0.015625 0  0.34375 0.015625 0  0.3515625 0.015625 0  0.359375 0.015625 0  0.3671875 0.015625 0  0.375 0.015625 0  0.3828125 0.015625 0  0.390625 0.015625 0  0.3984375 0.015625 0  0.40625 0.015625 0  0.4140625 0.015625 0  0.421875 0.015625 0  0.4296875 0.015625 0  0.4375 0.015625 0  0.4453125 0.015625 0  0.453125 0.015625 0  0.4609375 0.015625 0  0.46875 0.015625 0  0.4765625 0.015625 0  0.484375 0.015625 0  0.4921875 0.015625 0  0.5 0.015625 0  0.5078125 0.015625 0  0.515625 0.015625 0  0.5234375 0.015625 0  0.53125 0.015625 0  0.5390625 0.015625 0  0.546875 0.015625 0  0.5546875 0.015625 0  0.5625 0.015625 0  0.5703125 0.015625 0  0.578125 0.015625 0  0.5859375 0.015625 0  0.59375 0.015625 0  0.6015625 0.015625 0  0.609375 0.015625 0  0.6171875 0.015625 0  0.625 0.015625 0  0.6328125 0.015625 0  0.640625 0.015625 0  0.6484375 0.015625 0  0.65625 0.015625 0  0.6640625 0.015625 0  0.671875 0.015625 0  0.6796875 0.015625 0  0.6875 0.015625 0  0.6953125 0.015625 0  0.703125 0.015625 0  0.7109375 0.015625 0  0.71875 0.015625 0  0.7265625 0.015625 0  0.734375 0.015625 0  0.7421875 0.015625 0  0.75 0.015625 0  0.7578125 0.015625 0  0.765625 0.015625 0  0.7734375 0.015625 0  0.78125 0.015625 0  0.7890625 0.015625 0  0.796875 0.015625 0  0.8046875 0.015625 0  0.8125 0.015625 0  0.8203125 0.015625 0  0.828125 0.015625 0  0.8359375 0.015625 0  0.84375 0.015625 0  0.8515625 0.015625 0  0.859375 0.015625 0  0.8671875 0.015625 0  0.875 0.015625 0  0.8828125 0.015625 0  0.890625 0.015625 0  0.8984375 0.015625 0  0.90625 0.015625 0  0.9140625 0.015625 0  0.921875 0.015625 0  0.9296875 0.015625 0  0.9375 0.015625 0  0.9453125 0.015625 0  0.953125 0.015625 0  0.9609375 0.015625 0  0.96875 0.015625 0  0.9765625 0.015625 0  0.984375 0.015625 0  0.9921875 0.015625 0  1 0.015625 0  0 0.0234375 0  0.0078125 0.0234375 0  0.015625 0.0234375 0  0.0234375 0.0234375 0  0.03125 0.0234375 0  0.0390625 0.0234375 0  0.046875 0.0234375 0  0.0546875 0.0234375 0  0.0625 0.0234375 0  0.0703125 0.0234375 0  0.078125 0.0234375 0  0.0859375 0.0234375 0  0.09375 0.0234375 0  0.1015625 0.0234375 0  0.109375 0.0234375 0  0.1171875 0.0234375 0  0.125 0.0234375 0  0.1328125 0.0234375 0  0.140625 0.0234375 0  0.1484375 0.0234375 0  0.15625 0.0234375 0  0.1640625 0.0234375 0  0.171875 0.0234375 0  0.1796875 0.0234375 0  0.1875 0.0234375 0  0.1953125 0.0234375 0  0.203125 0.0234375 0  0.2109375 0.0234375 0  0.21875 0.0234375 0  0.2265625 0.0234375 0  0.234375 0.0234375 0  0.2421875 0.0234375 0  0.25 0.0234375 0  0.2578125 0.0234375 0  0.265625 0.0234375 0  0.2734375 0.0234375 0  0.28125 0.0234375 0  0.2890625 0.0234375 0  0.296875 0.0234375 0  0.3046875 0.0234375 0  0.3125 0.0234375 0  0.3203125 0.0234375 0  0.328125 0.0234375 0  0.3359375 0.0234375 0  0.34375 0.0234375 0  0.3515625 0.0234375 0  0.359375 0.0234375 0  0.3671875 0.0234375 0  0.375 0.0234375 0  0.3828125 0.0234375 0  0.390625 0.0234375 0  0.3984375 0.0234375 0  0.40625 0.0234375 0  0.4140625 0.0234375 0  0.421875 0.0234375 0  0.4296875 0.0234375 0  0.4375 0.0234375 0  0.4453125 0.0234375 0  0.453125 0.0234375 0  0.4609375 0.0234375 0  0.46875 0.0234375 0  0.4765625 0.0234375 0  0.484375 0.0234375 0  0.4921875 0.0234375 0  0.5 0.0234375 0  0.5078125 0.0234375 0  0.515625 0.0234375 0  0.5234375 0.0234375 0  0.53125 0.0234375 0  0.5390625 0.0234375 0  0.546875 0.0234375 0  0.5546875 0.0234375 0  0.5625 0.0234375 0  0.5703125 0.0234375 0  0.578125 0.0234375 0  0.5859375 0.0234375 0  0.59375 0.0234375 0  0.6015625 0.0234375 0  0.609375 0.0234375 0  0.6171875 0.0234375 0  0.625 0.0234375 0  0.6328125 0.0234375 0  0.640625 0.0234375 0  0.6484375 0.0234375 0  0.65625 0.0234375 0  0.6640625 0.0234375 0  0.671875 0.0234375 0  0.6796875 0.0234375 0  0.6875 0.0234375 0  0.6953125 0.0234375 0  0.703125 0.0234375 0  0.7109375 0.0234375 0  0.71875 0.0234375 0  0.7265625 0.0234375 0  0.734375 0.0234375 0  0.7421875 0.0234375 0  0.75 0.0234375 0  0.7578125 0.0234375 0  0.765625 0.0234375 0  0.7734375 0.0234375 0  0.78125 0.0234375 0  0.7890625 0.0234375 0  0.796875 0.0234375 0  0.8046875 0.0234375 0  0.8125 0.0234375 0  0.8203125 0.0234375 0  0.828125 0.0234375 0  0.8359375 0.0234375 0  0.84375 0.0234375 0  0.8515625 0.0234375 0  0.859375 0.0234375 0  0.8671
[...]
<CellData  Scalars="f_14792"> 
<DataArray  type="Float64"  Name="f_14792"  format="ascii">5.9273957195188793e-07   5.9273957195188888e-07   5.9171895477719563e-07   5.9207238975933721e-07   5.8999112108115226e-07   5.9069708391464504e-07   5.8756005836921727e-07   5.8861679655049244e-07   5.8443146630400888e-07   5.8583638578450828e-07   5.8061273350427399e-07   5.8236240456879673e-07   5.7611291550895693e-07   5.7820308068721369e-07   5.7094271090387779e-07   5.7336829489317502e-07   5.6511443450951324e-07   5.6786955608264627e-07   5.5864198719271671e-07   5.6171997306120955e-07   5.5154082213818632e-07   5.5493422273676050e-07   5.4382790754044228e-07   5.4752851469362992e-07   5.3552168574079023e-07   5.3952055216901007e-07   5.2664202887031212e-07   5.3092948948781581e-07   5.1721019108327479e-07   5.2177588603632819e-07   5.0724875748208196e-07   5.1208165687135062e-07   4.9678158984773479e-07   5.0187002007539906e-07   4.8583376930070015e-07   4.9116544097808138e-07   4.7443153602626613e-07   4.7999357337474489e-07   4.6260222620687144e-07   4.6838119788094816e-07   4.5037420631147888e-07   4.5635615756923756e-07   4.3777680489899407e-07   4.4394729104265808e-07   4.2484024209918196e-07   4.3118436310423526e-07   4.1159555694025886e-07   4.1809799319024645e-07   3.9807453269801136e-07   4.0471958173804787e-07   3.8430962044588659e-07   3.9108123466641149e-07   3.7033386099024873e-07   3.7721568614975771e-07   3.5618080537871533e-07   3.6315621987268325e-07   3.4188443417318693e-07   3.4893658895403625e-07   3.2747907568214962e-07   3.3459093473414260e-07   3.1299932334926376e-07   3.2015370462012400e-07   2.9847995249745027e-07   3.0565956918840032e-07   2.8395583662925902e-07   2.9114333874340930e-07   2.6946186348526567e-07   2.7663987953429436e-07   2.5503285106300935e-07   2.6218402983035168e-07   2.4070346379886101e-07   2.4781051606081063e-07   2.2650812911505500e-07   2.3355386921664747e-07   2.1248095453319054e-07   2.1944834171981060e-07   1.9865564555391369e-07   2.0552782495871446e-07   1.8506542450103764e-07   1.9182576768864423e-07   1.7174295052572427e-07   1.7837509549505453e-07   1.5872024096363037e-07   1.6520813151271236e-07   1.4602859423469888e-07   1.5235651859277408e-07   1.3369851447166066e-07   1.3985114310512938e-07   1.2175963805881425e-07   1.2772206055993970e-07   1.1024066225841857e-07   1.1599842322742763e-07   9.9169276096748078e-08   1.0470840993117868e-07   8.8572093676512192e-08   9.3879158183240206e-08   7.8474590076484972e-08   8.3536698825891460e-08   6.8901039992935986e-08   7.3705893336695670e-08   5.9874459270722048e-08   6.4410373948501865e-08   5.1416549465308783e-08   5.5672486728930971e-08   4.3547645569149320e-08   4.7513237756260300e-08   3.6286667028594855e-08   3.9952242521790338e-08   2.9651072169521106e-08   3.3007678680530222e-08   2.3656816141465334e-08   2.6696242264372384e-08   1.8318312481796667e-08   2.1033107463209432e-08   1.3648398392560742e-08   1.6031890070847764e-08   9.6583038137280718e-09   1.1704614684401097e-08   6.3576243674748571e-09   8.0616857354838599e-09   3.7542982387260709e-09   5.1118624238211495e-09   1.8545870476727766e-09   2.8622376133005108e-09   6.6306076047481621e-10   1.3182207414446238e-09   1.8258667446999476e-10   4.8352478360415238e-10   4.1432250449621150e-10   3.6015730323773975e-10   1.3577135869808008e-09   9.4841560991661896e-10   3.0104942085465766e-09   2.2468860366940937e-09   5.3686930559474631e-09   4.2524473386286391e-09   8.4266427741772297e-09   6.9602782042489829e-09   1.2176993609722600e-08   1.0363868861865662e-08   1.6610731106014166e-08   1.4455036752716046e-08   2.1717197808508203e-08   1.9223946233228388e-08   2.7484118926932501e-08   2.4659132258797452e-08   3.3897631892916684e-08   3.0747527992065406e-08   4.0942319741657664e-08   3.7474496269034136e-08   4.8601248237187978e-08   4.4823864847236660e-08   5.6856006651649371e-08   5.2777965350845060e-08   6.5686752100304343e-08   6.1317675818989333e-08   7.5072257325294961e-08   7.0422466754541439e-08   8.4989961812984565e-08   8.0070450562186970e-08   9.5416026121569081e-08   9.0238434256962813e-08   1.0632538928795120e-07   1.0090197531576941e-07   1.1769182917539472e-07   1.1203544053745709e-07   1.2948802561651750e-07   1.2361206776910424e-07   1.4168562619928688e-07   1.3560403035025350e-07   1.5425531453726368e-07   1.4798250411917389e-07   1.6716688085964489e-07   1.6071773681980149e-07   1.8038929475069067e-07   1.7377911974177316e-07   1.9389077986317087e-07   1.8713526142108889e-07   2.0763889042560306e-07   2.0075406322332361e-07   2.2160058935882528e-07   2.1460279662712081e-07   2.3574232781337873e-07   2.2864818202208776e-07   2.5003012593591455e-07   2.4285646883008079e-07   2.6442965466986188e-07   2.5719351675758429e-07   2.7890631839290051e-07   2.7162487798249184e-07   2.9342533819209710e-07   2.8611588007753846e-07   3.0795183557562208e-07   3.0063170946999769e-07   3.2245091641920430e-07   3.1513749523649554e-07   3.3688775494482295e-07   3.2959839303071498e-07   3.5122767752897212e-07   3.4397966894164256e-07   3.6543624613831647e-07   3.5824678307962893e-07   3.7947934119139604e-07   3.7236547268929564e-07   3.9332324364642488e-07   3.8630183458793806e-07   4.0693471611708850e-07   4.0002240673103591e-07   4.2028108282045719e-07   4.1349424870744682e-07   4.3333030816423591e-07   4.2668502097097044e-07   4.4605107378319930e-07   4.3956306261537858e-07   4.5841285383910298e-07   4.5209746750672237e-07   4.7038598840190863e-07   4.6425815858759723e-07   4.8194175473493052e-07   4.7601596017479140e-07   4.9305243631139772e-07   4.8734266807426527e-07   5.0369138939538835e-07   4.9821111734493420e-07   5.1383310702532754e-07   5.0859524754558335e-07   5.2345328024472664e-07   5.1847016530706625e-07   5.3252885643053800e-07   5.2781220407698933e-07   5.4103809457596081e-07   5.3659898088980248e-07   5.4896061739099944e-07   5.4480945002246737e-07   5.5627746008932645e-07   5.5242395340035368e-07   5.6297111573606908e-07   5.5942426762385748e-07   5.6902557703377311e-07   5.6579364748901148e-07   5.7442637442415717e-07   5.7151686587547878e-07   5.7916061037565609e-07   5.7658024986733076e-07   5.8321698970359690e-07   5.8097171294868570e-07   5.8658584570806716e-07   5.8468078305402583e-07   5.8925916175530404e-07   5.8769862609302941e-07   5.9123058747786702e-07   5.9001806411615845e-07   5.9249544729829890e-07   5.9163358580962876e-07   5.9305073280820304e-07   5.9254134080862834e-07   5.9207238975933551e-07   5.9171895477719606e-07   5.9105483188008850e-07   5.9105483188008766e-07   5.8933145757874446e-07   5.8968483350043636e-07   5.8690632327876575e-07   5.8761216898508257e-07   5.8378515123996470e-07   5.8484171528404860e-07   5.7997533208648401e-07   5.8138002154893400e-07   5.7548591176514018e-07   5.7723529814017865e-07   5.7032757154341147e-07   5.7241739865555387e-07   5.6451260305489974e-07   5.6693779698469403e-07   5.5805487909585333e-07   5.6080956008936404e-07   5.5096982047450754e-07   5.5404731680712564e-07   5.4327435907869021e-07   5.4666722283912356e-07   5.3498689728334816e-07   5.3868692203928689e-07   5.2612726380715785e-07   5.3012550410983105e-07   5.1671666612847178e-07   5.2100345880841038e-07   5.0677763957587954e-07   5.1134262677860573e-07   4.9633399321613737e-07   5.0116614712201846e-07   4.8541075266858415e-07   4.9049840183632669e-07   4.7403409998362830e-07   4.7936495725486031e-07   4.6223131072953134e-07   4.6779250262583898e-07   4.5003068843828393e-07   4.5580878598017895e-07   4.3746149656893035e-07   4.4344254744239867e-07   4.2455388815096392e-07   4.3072345014331470e-07   4.1133883327854639e-07   4.1768200890302097e-07   3.9784804462897070e-07   4.0434951685475284e-07   3.8411390118552582e-07   3.9075797018621589e-07   3.7016937034839474e-07   3.7693999118055625e-07   3.5604792862145745e-07   3.6292874974217752e-07   3.4178348106590325e-07   3.4875788359619320e-07   3.2741027971543764e-07   3.3446141735461103e-07   3.1296284114896641e-07   3.2007368064397452e-07   2.9847586342057980e-07   3.0562922549185066e-07   2.8398414254630589e-07   2.9116274317187444e-07   2.6952248874955170e-07   2.7670898070754907e-07   2.5512564266614446e-07   2.6230265723548333e-07   2.4082819171395102e-07   2.4797838043201785e-07   2.2666448682456901e-07   2.3377056320163197e-07   2.1266855974143467e-07   2.1971334083091141e-07   1.9887404108232732e-07   2.0584048880631249e-07   1.8531407936355605e-07   1.9218534149413807e-07   1.7202126118234433e-07   1.7878071187957955e-07   1.5902753274863287e-07   1.6565881255731692e-07   1.4636412295646721e-07   1.5285117816524743e-07   1.3406146818005914e-07   1.4038858944771839e-07   1.2214913897606369e-07   1.2830099913180915e-07   1.1065576886854794e-07   1.1661745979529361e-07   9.9608985389125070e-08   1.0536605390001941e-07   8.9035343537431423e-08   9.4573826160005650e-08   7.8960261823750613e-08   8.4266718406893987e-08   6.9407961046869297e-08   7.4469507109980415e-08   6.0401405955429447e-08   6.5205743701365438e-08   5.1962249933505670e-08   5.6497697850815525e-08   4.4110782843370529e-08   4.8366303825991569e-08   3.6865882151688767e-08   4.0831110068498329e-08   3.0244967456685897e-08   3.3910232106608783e-08   2.4263958526175892e-08   2.7620308918797163e-08   1.8937236947578050e-08   2.1976462852747322e-08   1.4277611482150337e-08   1.6992263197102273e-08   1.0296287207636909e-08   1.2679693493161092e-08   7.0028385228387724e-09   9.0491226660983813e-09   4.4051860800697343e-09   6.1092800444694913e-09   2.5095777005996332e-09   3.8672343291334751e-09   1.3205733192847237e-09   2.3283765615587310e-09   8.4103399468040580e-10   1.4964071331514678e-09   1.0721150111252819e-09   1.3733268665629626e-09   2.0132630894457708e-09   1.9594321906964904e-09   3.6622177130088915e-09   3.2533144209514861e-09   6.0150165659018151e-09   5.2518631465294395e-09   9.0660050701636961e-09   7.9502737165577732e-09   1.2807849999038412e-08   1.1342058807027489e-08   1.7231557133416546e-08   1.5419064040606628e-08   2.2326492918955027e-08   2.0171487621797006e-08   2.8080410071551565e-08   2.5587903939906552e-08   3.4479477069517315e-08   3.1655291083113511e-08   4.1508311461212742e-08   3.8359062196963006e-08   4.9150016907985496e-08   4.5683100612183995e-08   5.7386223872882239e-08   5.3609798656587009e-08   6.6197133857234400e-08   6.2120100057801828e-08   7.5561567078296473e-08   7.1193545834496475e-08   8.5457013472816640e-08   8.0808323565180324e-08   9.5859686903923305e-08   9.0941319916403436e-08   1.0674458244028386e-07   1.0156817630283949e-07   1.1808553656954849e-07   1.1266334754571770e-07   1.2985529020062678e-07   1.2420016338783370e-07   1.4202555430325130e-07   1.3615089271667044e-07   1.5456707802619984e-07   1.4848681034103044e-07   1.6744971913006013e-07   1.6117826616018656e-07   1.8064251656444277e-07   1.7419475655800571e-07   1.9411376501500120e-07   1.8750499785103078e-07   2.0783109124001607e-07   2.0107700161222120e-07   2.2176153201258796e-07   2.1487815168954209e-07   2.3587161348084619e-07   2.2887528273316187e-07   2.5012743175388471e-07   2.4303476004204283e-07   2.6449473451992966e-07   2.5732256053707156e-07   2.7893900349926633e-07   2.7170435466592698e-07   2.9342553753342129e-07   2.8614558904170736e-07   3.0791953610982156e-07   3.0061156961583008e-07   3.2238618312073506e-07   3.1506754518520991e-07   3.3679073065425840e-07   3.2947879103154151e-07   3.5109858261526785e-07   3.4381069249120809e-07   3.6527537797432576e-07   3.5802882825456121e-07   3.7928707344433159e-07   3.7209905319263282e-07   3.9310002538449608e-07   3.8598758051242602e-07   4.0668107073476090e-07   3.9966106304194069e-07   4.1999760678464516e-07   4.1308667344862555e-07   4.3301766958486117e-07   4.2623218319845231e-07   4.4571001081102491e-07   4.3906604006341980e-07   4.5804417289528136e-07   4.5155744399207928e-07   4.6999056224299100e-07   4.6367642115834568e-07   4.8152052035860841e-07   4.7539389601026034e-07   4.9260639270750254e-07   4.8668176114434632e-07   5.0322159514827660e-07   4.9751294483603068e-07   5.1334067777315652e-07   5.0786147606261231e-07   5.2293938600208565e-07   5.1770254686092456e-07   5.3199471878146016e-07   5.2701257186700933e-07   5.4048498374428192e-07   5.3576924489255636e-07   5.4838984919613962e-07   5.4395159239786350e-07   5.5569039279632586e-07   5.5154002372798941e-07   5.6236914680968557e-07   5.5851637798319226e-07   5.6841013980880039e-07   5.6486396739987190e-07   5.7379893470809166e-07   5.7056761711914645e-07   5.7852266300816349e-07   5.7561370121724435e-07   5.8257005511577717e-07   5.7999017485880574e-07   5.8593146656983716e-07   5.8368660239902750e-07   5.8859889992063788e-07   5.8669418117748347e-07   5.9056602180337030e-07   5.8900576054225581e-07   5.9182817423998214e-07   5.9061585514281190e-07   5.9238237832978514e-07   5.9152065069068106e-07   5.9069708391464441e-07   5.8999112108115078e-07   5.8968483350043583e-07   5.8933145757874510e-07   5.8796995345371381e-07   5.8796995345371625e-07   5.8555649647898941e-07   5.8590981466137889e-07   5.8245017174515735e-07   5.8315590332953457e-07   5.7865834535066386e-07   5.7971474030358130e-07   5.7419002826924391e-07   5.7559449515086788e-07   5.6905585726704635e-07   5.7080496912221185e-07   5.6326807067792322e-07   5.6535757295515094e-07   5.5684047976178521e-07   5.5926530024011468e-07   5.4978843599405615e-07   5.5254269669246540e-07   5.4212879449526886e-07   5.4520582553589630e-07   5.3387987375511317e-07   5.3727222914608172e-07   5.2506141178142257e-07   5.2876088708081448e-07   5.1569451879729582e-07   5.1969217061561386e-07   5.0580162661067980e-07   5.1008779390440892e-07   4.9540643478399781e-07   4.9997076188839410e-07   4.8453385373531191e-07   4.8936531508133633e-07   4.7320994491240001e-07   4.7829687136721940e-07   4.6146185818265685e-07   4.6679196495033581e-07   4.4931776659161064e-07   4.5487818260686314e-07   4.3680679864837279e-07   4.4258409739140209e-07   4.2395896829952081e-07   4.2993919995853430e-07   4.1080510276277956e-07   4.1697382766561227e-07   3.9737676839330800e-07   4.0371909162779419e-07   3.8370619476139400e-07   3.9020680190043296e-07   3.6982619712542895e-07   3.7646939097111903e-07   3.5577009748677829e-07   3.6253983574395507e-07   3.4157164441680653e-07   3.4845157820566514e-07   3.2726493184987758e-07   3.3423844496445059e-07   3.1288431703798304e-07   3.1993456585525544e-07   2.9846433786466563e-07   3.0557429180874346e-07   2.8403962971830567e-07   2.9119211218109500e-07   2.6964484212493875e-07   2.7682257174470588e-07   2.5531455534076292e-07   2.6250018753974334e-07   2.4108319710809987e-07   2.4825936578712993e-07   2.2698495977215595e-07   2.3413431906348000e-07   2.1305371796146252e-07   2.2015898393765565e-07   1.9932294702893587e-07   2.0636693926759018e-07   1.8582564245042823e-07   1.9279132535457306e-07   1.7259424037601107e-07   1.7946476414999579e-07   1.5966053952440213e-07   1.6641928070662682e-07   1.4705562461003430e-07   1.5368622606448850e-07   1.3480979148663743e-07   1.4129620175698510e-07   1.2295247418836086e-07   1.2927898611919525e-07   1.1151217404424065e-07   1.1766346257641256e-07   1.0051639103669033e-07   1.0647755008573389e-07   8.9991557570162107e-08   9.5748135898457063e-08   7.9962974809255408e-08   8.5501010805278328e-08   7.0454751739854640e-08   7.5760807021021029e-08   6.1489747100252688e-08   6.6550938857774634e-08   5.3089514322776957e-08   5.7893546330719325e-08   4.5274249617798954e-08   4.9809441831349673e-08   3.8062743326204990e-08   4.2318059997837725e-08   3.1472334656995804e-08   3.5437410902533557e-08   2.5518869919750904e-08   2.9184036670316940e-08   2.0216664352055130e-08   2.3572971631687946e-08   1.5578467634581866e-08   1.8617706107185105e-08   1.1615433176358684e-08   1.4330153910219985e-08   8.3370912449897230e-09   1.0720623646855166e-08   5.7513260058163960e-09   7.7977938816122351e-09   3.8643565262187090e-09   5.5686922293015228e-09   2.6807217901788842e-09   4.0386784231820335e-09   2.2032697597065690e-09   3.2114314004954646e-09   2.4331505092362517e-09   3.0889404362291762e-09   3.3698134497086250e-09   3.6715003467550252e-09   5.0110086489036056e-09   4.9577107747685653e-09   7.3527922449657561e-09   6.9444795572958288e-09   1.0389535939956371e-08   9.6270301686469849e-09   1.4113940550617590e-08   1.2998913220376395e-08   1.8517053583590891e-08   1.7052021990491579e-08   2.3588290792834967e-08   2.1776611944538059e-08   2.9315461667084238e-08   2.7161324201385642e-08   3.5684798786071721e-08   3.3193212887250462e-08   4.2680990974401477e-08   3.9857776311668069e-08   5.0287220173664184e-08   4.7138991890926185e-08   5.8485201943269587e-08   5.5019354733955993e-08   6.7255229492747983e-08   6.3479919798091391e-08   7.6576221139147864e-08   7.2500347512798202e-08   8.6425771074969694e-08   8.2058952761804987e-08   9.6780203324697116e-08   9.2132757104694610e-08   1.0761462875901036e-07   1.0269754411295936e-07   1.1890300502998354e-07   1.1372791768628993e-07   1.3061819928216509e-07   1.2519736320887525e-07   1.4273205348846147e-07   1.3707831139826798e-07   1.5521545225333490e-07   1.4934220469238208e-07   1.6803839291993819e-07   1.6195956601516842e-07   1.8117005781134072e-07   1.7490006975446029e-07   1.9457888843277042e-07   1.8813261478137173e-07   2.0823266145487884e-07   2.0162539933475343e-07   2.2209856629529223e-07   2.1534599759003284e-07   2.3614328411130807e-07   2.2926143772848762e-07   2.5033306801301445e-07   2.4333828131750592e-07   2.6463382430328148e-07   2.5754270381123286e-07   2.7901119454913485e-07   2.7184057597736527e-07   2.9343063828605318e-07   2.8619754605303877e-07   3.0785751615571869e-07   3.0057912243231069e-07   3.2225717327711243e-07   3.1495075668567702e-07   3.3659502264926428e-07   3.2927792671076397e-07   3.5083662838461054e-07   3.4352621981447512e-07   3.6494778857268535e-07   3.5766141552540706e-07   3.7889461757304351e-07   3.7164956793692272e-07   3.9264362754010540e-07   3.8545708738257655e-07   4.0616180898242193e-07   3.9905082124623748e-07   4.1941671016183608e-07   4.1239813371203926e-07   4.3237651514179260e-07   4.2546698426201749e-07   4.4501012029486027e-07   4.3822600473128503e-07   4.5728720908623740e-07   4.5064457473503919e-07   4.6917832495152317e-07   4.6269289528540192e-07   4.8065494209305148e-07   4.7434206041936364e-07   4.9168953402358810e-07   4.8556412666562597e-07   5.0225563969115703e-07   4.9633218018140658e-07   5.1232792702503547e-07   5.0662040139694171e-07   5.2188225374879357e-07   5.1640412701051812e-07   5.3089572531173377e-07   5.2565990918339772e-07   5.3934674979776139e-07   5.3436557178963192e-07   5.4721508967632343e-07   5.4250026358294977e-07   5.5448191026722827e-07   5.5004450814852841e-07   5.6112982479667662e-07   5.5698025051388913e-07   5.6714293592835683e-07   5.6329090029867249e-07   5.7250687365694115e-07   5.6896137128677923e-07   5.7720882945328408e-07   5.7397811730655780e-07   5.8123758654704364e-07   5.7832916430015687e-07   5.8458354621806674e-07   5.8200413845009496e-07   5.8723874993462645e-07   5.8499429019749213e-07   5.8919689711707549e-07   5.8729251392902830e-07   5.9045335830586730e-07   5.8889336311450345e-07   5.9100518431039840e-07   5.8979306148430779e-07   5.8861679655048408e-07   5.8756005836921494e-07   5.8761216898507855e-07   5.8690632327875897e-07   5.8590981466138069e-07   5.8555649647899015e-07   5.8351375636991965e-07   5.8351375636992166e-07   5.8042966752074646e-07   5.8078292962681394e-07   5.7666486710254674e-07   5.7737048823783347e-07   5.7222830673607754e-07   5.7328453862122403e-07   5.6713055165368350e-07   5.6853480465822145e-07   5.6138375674584320e-07   5.6313260578180692e-07   5.5500163824595380e-07   5.5709083068775022e-07   5.4799944136302325e-07   5.5042390697414862e-07   5.4039390406156136e-07   5.4314776690334008e-07   5.3220321714131864e-07   5.3527980943489584e-07   5.2344698074961515e-07   5.2683885865699339e-07   5.14146157