<?xml version="1.0"?>
<VTKFile type="UnstructuredGrid"  version="0.1"  >
<UnstructuredGrid>
<Piece  NumberOfPoints="16641" NumberOfCells="32768">
<Points>
<DataArray  type="Float64"  NumberOfComponents="3"  format="ascii">0 0 0  0.0078125 0 0  0.015625 0 0  0.0234375 0 0  0.03125 0 0  0.0390625 0 0  0.046875 0 0  0.0546875 0 0  0.0625 0 0  0.0703125 0 0  0.078125 0 0  0.0859375 0 0  0.09375 0 0  0.1015625 0 0  0.109375 0 0  0.1171875 0 0  0.125 0 0  0.1328125 0 0  0.140625 0 0  0.1484375 0 0  0.15625 0 0  0.1640625 0 0  0.171875 0 0  0.1796875 0 0  0.1875 0 0  0.1953125 0 0  0.203125 0 0  0.2109375 0 0  0.21875 0 0  0.2265625 0 0  0.234375 0 0  0.2421875 0 0  0.25 0 0  0.2578125 0 0  0.265625 0 0  0.2734375 0 0  0.28125 0 0  0.2890625 0 0  0.296875 0 0  0.3046875 0 0  0.3125 0 0  0.3203125 0 0  0.328125 0 0  0.3359375 0 0  0.34375 0 0  0.3515625 0 0  0.359375 0 0  0.3671875 0 0  0.375 0 0  0.3828125 0 0  0.390625 0 0  0.3984375 0 0  0.40625 0 0  0.4140625 0 0  0.421875 0 0  0.4296875 0 0  0.4375 0 0  0.4453125 0 0  0.453125 0 0  0.4609375 0 0  0.46875 0 0  0.4765625 0 0  0.484375 0 0  0.4921875 0 0  0.5 0 0  0.5078125 0 0  0.515625 0 0  0.5234375 0 0  0.53125 0 0  0.5390625 0 0  0.546875 0 0  0.5546875 0 0  0.5625 0 0  0.5703125 0 0  0.578125 0 0  0.5859375 0 0  0.59375 0 0  0.6015625 0 0  0.609375 0 0  0.6171875 0 0  0.625 0 0  0.6328125 0 0  0.640625 0 0  0.6484375 0 0  0.65625 0 0  0.6640625 0 0  0.671875 0 0  0.6796875 0 0  0.6875 0 0  0.6953125 0 0  0.703125 0 0  0.7109375 0 0  0.71875 0 0  0.7265625 0 0  0.734375 0 0  0.7421875 0 0  0.75 0 0  0.7578125 0 0  0.765625 0 0  0.7734375 0 0  0.78125 0 0  0.7890625 0 0  0.796875 0 0  0.8046875 0 0  0.8125 0 0  0.8203125 0 0  0.828125 0 0  0.8359375 0 0  0.84375 0 0  0.8515625 0 0  0.859375 0 0  0.8671875 0 0  0.875 0 0  0.8828125 0 0  0.890625 0 0  0.8984375 0 0  0.90625 0 0  0.9140625 0 0  0.921875 0 0  0.9296875 0 0  0.9375 0 0  0.9453125 0 0  0.953125 0 0  0.9609375 0 0  0.96875 0 0  0.9765625 0 0  0.984375 0 0  0.9921875 0 0  1 0 0  0 0.0078125 0  0.0078125 0.0078125 0  0.015625 0.0078125 0  0.0234375 0.0078125 0  0.03125 0.0078125 0  0.0390625 0.0078125 0  0.046875 0.0078125 0  0.0546875 0.0078125 0  0.0625 0.0078125 0  0.0703125 0.0078125 0  0.078125 0.0078125 0  0.0859375 0.0078125 0  0.09375 0.0078125 0  0.1015625 0.0078125 0  0.109375 0.0078125 0  0.1171875 0.0078125 0  0.125 0.0078125 0  0.1328125 0.0078125 0  0.140625 0.0078125 0  0.1484375 0.0078125 0  0.15625 0.0078125 0  0.1640625 0.0078125 0  0.171875 0.0078125 0  0.1796875 0.0078125 0  0.1875 0.0078125 0  0.1953125 0.0078125 0  0.203125 0.0078125 0  0.2109375 0.0078125 0  0.21875 0.0078125 0  0.2265625 0.0078125 0  0.234375 0.0078125 0  0.2421875 0.0078125 0  0.25 0.0078125 0  0.2578125 0.0078125 0  0.265625 0.0078125 0  0.2734375 0.0078125 0  0.28125 0.0078125 0  0.2890625 0.0078125 0  0.296875 0.0078125 0  0.3046875 0.0078125 0  0.3125 0.0078125 0  0.3203125 0.0078125 0  0.328125 0.0078125 0  0.3359375 0.0078125 0  0.34375 0.0078125 0  0.3515625 0.0078125 0  0.359375 0.0078125 0  0.3671875 0.0078125 0  0.375 0.0078125 0  0.3828125 0.0078125 0  0.390625 0.0078125 0  0.3984375 0.0078125 0  0.40625 0.0078125 0  0.4140625 0.0078125 0  0.421875 0.0078125 0  0.4296875 0.0078125 0  0.4375 0.0078125 0  0.4453125 0.0078125 0  0.453125 0.0078125 0  0.4609375 0.0078125 0  0.46875 0.0078125 0  0.4765625 0.0078125 0  0.484375 0.0078125 0  0.4921875 0.0078125 0  0.5 0.0078125 0  0.5078125 0.0078125 0  0.515625 0.0078125 0  0.5234375 0.0078125 0  0.53125 0.0078125 0  0.5390625 0.0078125 0  0.546875 0.0078125 0  0.5546875 0.0078125 0  0.5625 0.0078125 0  0.5703125 0.0078125 0  0.578125 0.0078125 0  0.5859375 0.0078125 0  0.59375 0.0078125 0  0.6015625 0.0078125 0  0.609375 0.0078125 0  0.6171875 0.0078125 0  0.625 0.0078125 0  0.6328125 0.0078125 0  0.640625 0.0078125 0  0.6484375 0.0078125 0  0.65625 0.0078125 0  0.6640625 0.0078125 0  0.671875 0.0078125 0  0.6796875 0.0078125 0  0.6875 0.0078125 0  0.6953125 0.0078125 0  0.703125 0.0078125 0  0.7109375 0.0078125 0  0.71875 0.0078125 0  0.7265625 0.0078125 0  0.734375 0.0078125 0  0.7421875 0.0078125 0  0.75 0.0078125 0  0.7578125 0.0078125 0  0.765625 0.0078125 0  0.7734375 0.0078125 0  0.78125 0.0078125 0  0.7890625 0.0078125 0  0.796875 0.0078125 0  0.8046875 0.0078125 0  0.8125 0.0078125 0  0.8203125 0.0078125 0  0.828125 0.0078125 0  0.8359375 0.0078125 0  0.84375 0.0078125 0  0.8515625 0.0078125 0  0.859375 0.0078125 0  0.8671875 0.0078125 0  0.875 0.0078125 0  0.8828125 0.0078125 0  0.890625 0.0078125 0  0.8984375 0.0078125 0  0.90625 0.0078125 0  0.9140625 0.0078125 0  0.921875 0.0078125 0  0.9296875 0.0078125 0  0.9375 0.0078125 0  0.9453125 0.0078125 0  0.953125 0.0078125 0  0.9609375 0.0078125 0  0.96875 0.0078125 0  0.9765625 0.0078125 0  0.984375 0.0078125 0  0.9921875 0.0078125 0  1 0.0078125 0  0 0.015625 0  0.0078125 0.015625 0  0.015625 0.015625 0  0.0234375 0.015625 0  0.03125 0.015625 0  0.0390625 0.015625 0  0.046875 0.015625 0  0.0546875 0.015625 0  0.0625 0.015625 0  0.0703125 0.015625 0  0.078125 0.015625 0  0.0859375 0.015625 0  0.09375 0.015625 0  0.1015625 0.015625 0  0.109375 0.015625 0  0.1171875 0.015625 0  0.125 0.015625 0  0.1328125 0.015625 0  0.140625 0.015625 0  0.1484375 0.015625 0  0.15625 0.015625 0  0.1640625 0.015625 0  0.171875 0.015625 0  0.1796875 0.015625 0  0.1875 0.015625 0  0.1953125 0.015625 0  0.203125 0.015625 0  0.2109375 0.015625 0  0.21875 0.015625 0  0.2265625 0.015625 0  0.234375 0.015625 0  0.2421875 0.015625 0  0.25 0.015625 0  0.2578125 0.015625 0  0.265625 0.015625 0  0.2734375 0.015625 0  0.28125 0.015625 0  0.2890625 0.015625 0  0.296875 0.015625 0  0.3046875 0.015625 0  0.3125 0.015625 0  0.3203125 0.015625 0  0.328125 0.015625 0  0.3359375 0.015625 0  0.34375 0.015625 0  0.3515625 0.015625 0  0.359375 0.015625 0  0.3671875 0.015625 0  0.375 0.015625 0  0.3828125 0.015625 0  0.390625 0.015625 0  0.3984375 0.015625 0  0.40625 0.015625 0  0.4140625 0.015625 0  0.421875 0.015625 0  0.4296875 0.015625 0  0.4375 0.015625 0  0.4453125 0.015625 0  0.453125 0.015625 0  0.4609375 0.015625 0  0.46875 0.015625 0  0.4765625 0.015625 0  0.484375 0.015625 0  0.4921875 0.015625 0  0.5 0.015625 0  0.5078125 0.015625 0  0.515625 0.015625 0  0.5234375 0.015625 0  0.53125 0.015625 0  0.5390625 0.015625 0  0.546875 0.015625 0  0.5546875 0.015625 0  0.5625 0.015625 0  0.5703125 0.015625 0  0.578125 0.015625 0  0.5859375 0.015625 0  0.59375 0.015625 0  0.6015625 0.015625 0  0.609375 0.015625 0  0.6171875 0.015625 0  0.625 0.015625 0  0.6328125 0.015625 0  0.640625 0.015625 0  0.6484375 0.015625 0  0.65625 0.015625 0  0.6640625 0.015625 0  0.671875 0.015625 0  0.6796875 0.015625 0  0.6875 0.015625 0  0.6953125 0.015625 0  0.703125 0.015625 0  0.7109375 0.015625 0  0.71875 0.015625 0  0.7265625 0.015625 0  0.734375 0.015625 0  0.7421875 0.015625 0  0.75 0.015625 0  0.7578125 0.015625 0  0.765625 0.015625 0  0.7734375 0.015625 0  0.78125 0.015625 0  0.7890625 0.015625 0  0.796875 0.015625 0  0.8046875 0.015625 0  0.8125 0.015625 0  0.8203125 0.015625 0  0.828125 0.015625 0  0.8359375 0.015625 0  0.84375 0.015625 0  0.8515625 0.015625 0  0.859375 0.015625 0  0.8671875 0.015625 0  0.875 0.015625 0  0.8828125 0.015625 0  0.890625 0.015625 0  0.8984375 0.015625 0  0.90625 0.015625 0  0.9140625 0.015625 0  0.921875 0.015625 0  0.9296875 0.015625 0  0.9375 0.015625 0  0.9453125 0.015625 0  0.953125 0.015625 0  0.9609375 0.015625 0  0.96875 0.015625 0  0.9765625 0.015625 0  0.984375 0.015625 0  0.9921875 0.015625 0  1 0.015625 0  0 0.0234375 0  0.0078125 0.0234375 0  0.015625 0.0234375 0  0.0234375 0.0234375 0  0.03125 0.0234375 0  0.0390625 0.0234375 0  0.046875 0.0234375 0  0.0546875 0.0234375 0  0.0625 0.0234375 0  0.0703125 0.0234375 0  0.078125 0.0234375 0  0.0859375 0.0234375 0  0.09375 0.0234375 0  0.1015625 0.0234375 0  0.109375 0.0234375 0  0.1171875 0.0234375 0  0.125 0.0234375 0  0.1328125 0.0234375 0  0.140625 0.0234375 0  0.1484375 0.0234375 0  0.15625 0.0234375 0  0.1640625 0.0234375 0  0.171875 0.0234375 0  0.1796875 0.0234375 0  0.1875 0.0234375 0  0.1953125 0.0234375 0  0.203125 0.0234375 0  0.2109375 0.0234375 0  0.21875 0.0234375 0  0.2265625 0.0234375 0  0.234375 0.0234375 0  0.2421875 0.0234375 0  0.25 0.0234375 0  0.2578125 0.0234375 0  0.265625 0.0234375 0  0.2734375 0.0234375 0  0.28125 0.0234375 0  0.2890625 0.0234375 0  0.296875 0.0234375 0  0.3046875 0.0234375 0  0.3125 0.0234375 0  0.3203125 0.0234375 0  0.328125 0.0234375 0  0.3359375 0.0234375 0  0.34375 0.0234375 0  0.3515625 0.0234375 0  0.359375 0.0234375 0  0.3671875 0.0234375 0  0.375 0.0234375 0  0.3828125 0.0234375 0  0.390625 0.0234375 0  0.3984375 0.0234375 0  0.40625 0.0234375 0  0.4140625 0.0234375 0  0.421875 0.0234375 0  0.4296875 0.0234375 0  0.4375 0.0234375 0  0.4453125 0.0234375 0  0.453125 0.0234375 0  0.4609375 0.0234375 0  0.46875 0.0234375 0  0.4765625 0.0234375 0  0.484375 0.0234375 0  0.4921875 0.0234375 0  0.5 0.0234375 0  0.5078125 0.0234375 0  0.515625 0.0234375 0  0.5234375 0.0234375 0  0.53125 0.0234375 0  0.5390625 0.0234375 0  0.546875 0.0234375 0  0.5546875 0.0234375 0  0.5625 0.0234375 0  0.5703125 0.0234375 0  0.578125 0.0234375 0  0.5859375 0.0234375 0  0.59375 0.0234375 0  0.6015625 0.0234375 0  0.609375 0.0234375 0  0.6171875 0.0234375 0  0.625 0.0234375 0  0.6328125 0.0234375 0  0.640625 0.0234375 0  0.6484375 0.0234375 0  0.65625 0.0234375 0  0.6640625 0.0234375 0  0.671875 0.0234375 0  0.6796875 0.0234375 0  0.6875 0.0234375 0  0.6953125 0.0234375 0  0.703125 0.0234375 0  0.7109375 0.0234375 0  0.71875 0.0234375 0  0.7265625 0.0234375 0  0.734375 0.0234375 0  0.7421875 0.0234375 0  0.75 0.0234375 0  0.7578125 0.0234375 0  0.765625 0.0234375 0  0.7734375 0.0234375 0  0.78125 0.0234375 0  0.7890625 0.0234375 0  0.796875 0.0234375 0  0.8046875 0.0234375 0  0.8125 0.0234375 0  0.8203125 0.0234375 0  0.828125 0.0234375 0  0.8359375 0.0234375 0  0.84375 0.0234375 0  0.8515625 0.0234375 0  0.859375 0.0234375 0  0.8671
[...]
<CellData  Scalars="f_14789"> 
<DataArray  type="Float64"  Name="f_14789"  format="ascii">9.3936437023024985e-12   9.3936437022935788e-12   1.6186832134948889e-11   2.0974241697623215e-11   2.4529111402153063e-11   3.3004237609653533e-11   3.4369311666426826e-11   4.7225531561859361e-11   4.5657386977995126e-11   6.3552536484823811e-11   5.8343763795275865e-11   8.1907340913402269e-11   7.2378349647850502e-11   1.0221386966321163e-10   8.7710253923582216e-11   1.2439610828840994e-10   1.0428765953135299e-10   1.4837740857551532e-10   1.2205772064672885e-10   1.7408010288472935e-10   1.4096647903662044e-10   2.0142524856654515e-10   1.6095880438078307e-10   2.3033245573128861e-10   1.8197836026214086e-10   2.6071977925893557e-10   2.0396759436280306e-10   2.9250366265908214e-10   2.2686775015187276e-10   3.2559892418044078e-10   2.5061889717531890e-10   3.5991877753719874e-10   2.7515997729823520e-10   3.9537488120541445e-10   3.0042886462423643e-10   4.3187741148735874e-10   3.2636243717410428e-10   4.6933515554591065e-10   3.5289665871803518e-10   5.0765562134656744e-10   3.7996666941190724e-10   5.4674516201332085e-10   4.0750688408162366e-10   5.8650911256356304e-10   4.3545109716886896e-10   6.2685193725894433e-10   4.6373259346171831e-10   6.6767738613231425e-10   4.9228426383671580e-10   7.0888865936539990e-10   5.2103872531642895e-10   7.5038857839707102e-10   5.4992844478765228e-10   7.9207976271888868e-10   5.7888586580389376e-10   8.3386481142478177e-10   6.0784353789957356e-10   8.7564648864231759e-10   6.3673424789248984e-10   9.1732791203393163e-10   6.6549115266627981e-10   9.5881274358066152e-10   6.9404791296386237e-10   1.0000053819537463e-09   7.2233882770921818e-10   1.0408111557393985e-09   7.5029896841097048e-10   1.0811365168616946e-09   7.7786431322915989e-10   1.1208892335519461e-09   8.0497188024936255e-10   1.1599785822435484e-09   8.3155985957896317e-10   1.1983155377619496e-09   8.5756774385669800e-10   1.2358129612566855e-09   8.8293645677157073e-10   1.2723857852702779e-09   9.0760847923852884e-10   1.3079511954113739e-09   9.3152797283874391e-10   1.3424288080878518e-09   9.5464090017838874e-10   1.3757408437826995e-09   9.7689514182394800e-10   1.4078122953622339e-09   9.9824060948075938e-10   1.4385710909660870e-09   1.0186293550829502e-09   1.4679482509600785e-09   1.0380156755058631e-09   1.4958780385632226e-09   1.0563562125813810e-09   1.5222981036775168e-09   1.0736100481732055e-09   1.5471496195427738e-09   1.0897387940094497e-09   1.5703774118312231e-09   1.1047066760298783e-09   1.5919300798097684e-09   1.1184806130356090e-09   1.6117601091972151e-09   1.1310302893963395e-09   1.6298239765103306e-09   1.1423282216034469e-09   1.6460822444394736e-09   1.1523498185145214e-09   1.6604996481268339e-09   1.1610734350805873e-09   1.6730451720218750e-09   1.1684804194355083e-09   1.6836921171261842e-09   1.1745551531766027e-09   1.6924181584168010e-09   1.1792850847614919e-09   1.6992053922714546e-09   1.1826607558616348e-09   1.7040403737942732e-09   1.1846758206515285e-09   1.7069141438460622e-09   1.1853270579218613e-09   1.7078222457723691e-09   1.1846143760041247e-09   1.7067647317119884e-09   1.1825408104467334e-09   1.7037461584565888e-09   1.1791125144642300e-09   1.6987755728637325e-09   1.1743387421483505e-09   1.6918664868193598e-09   1.1682318244813466e-09   1.6830368418184658e-09   1.1608071381863010e-09   1.6723089632117971e-09   1.1520830674821303e-09   1.6597095041998550e-09   1.1420809588389093e-09   1.6452693797376383e-09   1.1308250688142528e-09   1.6290236904716062e-09   1.1183425050904162e-09   1.6110116368616750e-09   1.1046631608610628e-09   1.5912764237201355e-09   1.0898196427061765e-09   1.5698651553662273e-09   1.0738471921230563e-09   1.5468287216570628e-09   1.0567836008985002e-09   1.5222216751274312e-09   1.0386691205226308e-09   1.4961020995789095e-09   1.0195463658498273e-09   1.4685314703776231e-09   9.9946021324793490e-10   1.4395745068350461e-09   9.7845769344742306e-10   1.4092990169826818e-09   9.5658787938610974e-10   1.3777757351406996e-09   9.3390176926995797e-10   1.3450781526541789e-09   9.1045216515995121e-10   1.3112823422009110e-09   8.8629354734537511e-10   1.2764667760872541e-09   8.6148194482379511e-10   1.2407121389627471e-09   8.3607480216756028e-10   1.2041011354138610e-09   8.1013084311095679e-10   1.1667182928730083e-09   7.8370993115687358e-10   1.1286497603184509e-09   7.5687292753972096e-10   1.0899831032476554e-09   7.2968154686882213e-10   1.0508070953841191e-09   7.0219821077699288e-10   1.0112115076490683e-09   6.7448589991019460e-10   9.7128689481459469e-10   6.4660800460466692e-10   9.3112438042624044e-10   6.1862817455331585e-10   8.9081544040340439e-10   5.9061016781232092e-10   8.5045168585857962e-10   5.6261769946947402e-10   8.1012464560060220e-10   5.3471429027586658e-10   7.6992554881154027e-10   5.0696311556287717e-10   7.2994510835163623e-10   4.7942685473230742e-10   6.9027330516956590e-10   4.5216754159743104e-10   6.5099917423569760e-10   4.2524641583937580e-10   6.1221059243033506e-10   3.9872377581191474e-10   5.7399406878313381e-10   3.7265883290810279e-10   5.3643453741444696e-10   3.4710956765255825e-10   4.9961515351125750e-10   3.2213258765843890e-10   4.6361709261830282e-10   2.9778298751155359e-10   4.2851935345293982e-10   2.7411421059186384e-10   3.9439856440426361e-10   2.5117791274674282e-10   3.6132879376508830e-10   2.2902382761434773e-10   3.2938136364514830e-10   2.0769963325163129e-10   2.9862466735885482e-10   1.8725081952494597e-10   2.6912398989204744e-10   1.6772055544508863e-10   2.4094133079084466e-10   1.4914955527427911e-10   2.1413522847482419e-10   1.3157594171184535e-10   1.8876058449340954e-10   1.1503510372948031e-10   1.6486848557850354e-10   9.9559545543885424e-11   1.4250602036439742e-10   8.5178721585682740e-11   1.2171608623452121e-10   7.1918849779946541e-11   1.0253717958160074e-10   5.9802691384577126e-11   8.5003159403530121e-11   4.8849278814742532e-11   6.9142968751939437e-11   3.9073560988658263e-11   5.4980289526714544e-11   3.0485913832304243e-11   4.2533090500531759e-11   2.3091420677190075e-11   3.1813000156158896e-11   1.6888736599997990e-11   2.2824381923975647e-11   1.1868139788560970e-11   1.5562879668101974e-11   8.0078183499827818e-12   1.0012959951410751e-11   5.2657392528411821e-12   6.1433930279058038e-12   3.5579690105618058e-12   3.8980514067678540e-12   2.1840293457902391e-12   3.1752751352454152e-12   2.0974241697600529e-11   1.6186832134880094e-11   3.1866439108258977e-11   3.1866439108205152e-11   4.5115180755922794e-11   4.4991303638589915e-11   6.0552758109391769e-11   6.0364045401014319e-11   7.8069867698763061e-11   7.7843013358831299e-11   9.7575901505587337e-11   9.7323251065829155e-11   1.1898798543228838e-10   1.1871474630000593e-10   1.4222631055958679e-10   1.4193407570157373e-10   1.6721188779492767e-10   1.6690035708943211e-10   1.9386541175155184e-10   1.9353324861727936e-10   2.2210665546489128e-10   2.2175193120229492e-10   2.5185413693886382e-10   2.5147457385012007e-10   2.8302493798713276e-10   2.8261805046901068e-10   3.1553461656559707e-10   3.1509779820217619e-10   3.4929718131462592e-10   3.4882776212608281e-10   3.8422511031657537e-10   3.8372039679889878e-10   4.2022940292519191e-10   4.1968670775350128e-10   4.5721965734711363e-10   4.5663632258826078e-10   4.9510416887066504e-10   4.9447758495098586e-10   5.3379004503269842e-10   5.3311766678497372e-10   5.7318333491852617e-10   5.7246269551110995e-10   6.1318917036415226e-10   6.1241789363617529e-10   6.5371191728473547e-10   6.5288772877596049e-10   6.9465533561213615e-10   6.9377607252491932e-10   7.3592274656230430e-10   7.3498636677049242e-10   7.7741720609548310e-10   7.7642179629460396e-10   8.1904168356943524e-10   8.1798546663886746e-10   8.6069924464935791e-10   8.5958058625656269e-10   9.0229323763667463e-10   9.0111065212371147e-10   9.4372748240528773e-10   9.4247963798316253e-10   9.8490646121803794e-10   9.8359218447799447e-10   1.0257355106812094e-09   1.0243537904506385e-09   1.0661210141677218e-09   1.0646710047162057e-09   1.1059705940496203e-09   1.1044516176661033e-09   1.1451933031121457e-09   1.1436048520570933e-09   1.1836998145030717e-09   1.1820415523591082e-09   1.2214026096678293e-09   1.2196743720909592e-09   1.2582161636608715e-09   1.2564179585573514e-09   1.2940571272841055e-09   1.2921891344243760e-09   1.3288445055158373e-09   1.3269070755898840e-09   1.3624998316993785e-09   1.3604934848482585e-09   1.3949473369825247e-09   1.3928727608051169e-09   1.4261141145447967e-09   1.4239721616050866e-09   1.4559302780905011e-09   1.4537219629445701e-09   1.4843291142159245e-09   1.4820556099724365e-09   1.5112472281774043e-09   1.5089098626122704e-09   1.5366246826604573e-09   1.5342249339148909e-09   1.5604051291731759e-09   1.5579446210313739e-09   1.5825359316777784e-09   1.5800164284735342e-09   1.6029682820879971e-09   1.6003916832592533e-09   1.6216573074059432e-09   1.6190256416633411e-09   1.6385621680372228e-09   1.6358775872719895e-09   1.6536461471547621e-09   1.6509109200127990e-09   1.6668767307769731e-09   1.6640932359779688e-09   1.6782256783484635e-09   1.6753963977490452e-09   1.6876690836238725e-09   1.6847965950561075e-09   1.6951874256514190e-09   1.6922743955690583e-09   1.7007656097645451e-09   1.6978147856868305e-09   1.7043929983538128e-09   1.7014072012015755e-09   1.7060634314240561e-09   1.7030455476783402e-09   1.7057752367915568e-09   1.7027282105824564e-09   1.7035312298937306e-09   1.7004580549921574e-09   1.6993387031946411e-09   1.6962424149544162e-09   1.6932094051862676e-09   1.6900930724608811e-09   1.6851595090263357e-09   1.6820262260678586e-09   1.6752095708459485e-09   1.6720624492273104e-09   1.6633844778529417e-09   1.6602266384383112e-09   1.6497133862871933e-09   1.6465479512537620e-09   1.6342296494255660e-09   1.6310597343808050e-09   1.6169707357443423e-09   1.6137994419616976e-09   1.5979781374506125e-09   1.5948085442269048e-09   1.5772972695980291e-09   1.5741324267789352e-09   1.5549773600052075e-09   1.5518202806801527e-09   1.5310713302417035e-09   1.5279249836502044e-09   1.5056356679630815e-09   1.5025029726148545e-09   1.4787302908920011e-09   1.4756141079437245e-09   1.4504184027713478e-09   1.4473215296529218e-09   1.4207663416262117e-09   1.4176915059643446e-09   1.3898434206902853e-09   1.3867932745309128e-09   1.3577217623985774e-09   1.3546988767601553e-09   1.3244761258142005e-09   1.3214829855854328e-09   1.2901837279081434e-09   1.2872227271073043e-09   1.2549240591317010e-09   1.2519974965582440e-09   1.2187786936993715e-09   1.2158887689779130e-09   1.1818310950434504e-09   1.1789799051059328e-09   1.1441664169037957e-09   1.1413559529052438e-09   1.1058713005183015e-09   1.1031034452207888e-09   1.0670336683813724e-09   1.0643101940250350e-09   1.0277425150885279e-09   1.0250650817604305e-09   9.8808769569588122e-10   9.8545785025060364e-10   9.4815971216252445e-10   9.4557888766841378e-10   9.0804949827913607e-10   9.0551901407266823e-10   8.6784820365119766e-10   8.6536926598796500e-10   8.2764697717110064e-10   8.2522068053016270e-10   7.8753675047563831e-10   7.8516407953545639e-10   7.4760802186337460e-10   7.4528985421166719e-10   7.0795064112281680e-10   7.0568775072944486e-10   6.6865359571457016e-10   6.6644665724027920e-10   6.2980479873577470e-10   6.2765439273196096e-10   5.9149087907211602e-10   5.8939749815770632e-10   5.5379697409218361e-10   5.5176103020486431e-10   5.1680652523498012e-10   5.1482835806715054e-10   4.8060107678272136e-10   4.7868096354822885e-10   4.4526007803984532e-10   4.4339824475082955e-10   4.1086068911339245e-10   4.0905732358166981e-10   3.7747759036414139e-10   3.7573285720966510e-10   3.4518279551618850e-10   3.4349685352899634e-10   3.1404546827945445e-10   3.1241849059389359e-10   2.8413174214289412e-10   2.8256393981036226e-10   2.5550454279014882e-10   2.5399619252521846e-10   2.2822341226117845e-10   2.2677488940124014e-10   2.0234433357397436e-10   2.0095615165286321e-10   1.7791955392261641e-10   1.7659241279641066e-10   1.5499740374073335e-10   1.5373224898213729e-10   1.3362210771186254e-10   1.3242020516732269e-10   1.1383358201652135e-10   1.1269661323295997e-10   9.5667209387683399e-11   9.4597396490791962e-11   7.9153579310695511e-11   7.8153852595796957e-11   6.4318173917661340e-11   6.3392403302672713e-11   5.1180968972253760e-11   5.0334294171111570e-11   3.9755900494539014e-11   3.8995219464452059e-11   3.0050114950119843e-11   2.9384836220798351e-11   2.2062863344485768e-11   2.1506116872887413e-11   1.5783797306044775e-11   1.5354477356283337e-11   1.1190251671162833e-11   1.0916640604117090e-11   8.2428962449706484e-12   8.1694371480152293e-12   6.8801229711898951e-12   7.0803477870599712e-12   5.5961286521141258e-12   7.6233790615293088e-12   3.3004237609508531e-11   2.4529111401960647e-11   4.4991303638540523e-11   4.5115180755746721e-11   5.9357079880995267e-11   5.9357079880926262e-11   7.5905315779549294e-11   7.5823892996828248e-11   9.4507788833294054e-11   9.4368596100359766e-11   1.1506236149612812e-10   1.1487952274676771e-10   1.3747858786526801e-10   1.3726048164620157e-10   1.6167149983538825e-10   1.6142277410014819e-10   1.8755849710819352e-10   1.8728136225234737e-10   2.1505764633783414e-10   2.1475272448944130e-10   2.4408672103109346e-10   2.4375359495767312e-10   2.7456265528506833e-10   2.7420022214512882e-10   3.0640123793211748e-10   3.0600794015330592e-10   3.3951695248645735e-10   3.3909093187682149e-10   3.7382290991761182e-10   3.7336211346351315e-10   4.0923084352530523e-10   4.0873309828662347e-10   4.4565114738107542e-10   4.4511421522397868e-10   4.8299294669693186e-10   4.8241456554414832e-10   5.2116419245446267e-10   5.2054210831926778e-10   5.6007177505222762e-10   5.5940376758203546e-10   5.9962165324585833e-10   5.9890555658020087e-10   6.3971899555407278e-10   6.3895271570704271e-10   6.8026833203907287e-10   6.7944986160242903e-10   7.2117371467587766e-10   7.2030114542958624e-10   7.6233888492261288e-10   7.6141041872884588e-10   8.0366744726598402e-10   8.0268140552940419e-10   8.4506304766228907e-10   8.4401787957121771e-10   8.8642955594164275e-10   8.8532384562226012e-10   9.2767125128594920e-10   9.2650372399349987e-10   9.6869300998260880e-10   9.6746253740780955e-10   1.0094004947109269e-09   1.0081060994661796e-09   1.0497003446209652e-09   1.0483412039652051e-09   1.0895003655514868e-09   1.0880758143906920e-09   1.1287097197219475e-09   1.1272192529219336e-09   1.1672391142585423e-09   1.1656823883054156e-09   1.2050009879809704e-09   1.2033778220114264e-09   1.2419096958358384e-09   1.2402200720636785e-09   1.2778816904198814e-09   1.2761257539826506e-09   1.3128357000485332e-09   1.3110137583009253e-09   1.3466929028391479e-09   1.3448054241004380e-09   1.3793770962884027e-09   1.3774247080851576e-09   1.4108148618707349e-09   1.4087983486736949e-09   1.4409357241548452e-09   1.4388560246503122e-09   1.4696723040098528e-09   1.4675305079118094e-09   1.4969604654400858e-09   1.4947578098714918e-09   1.5227394556502732e-09   1.5204773211084176e-09   1.5469520379309205e-09   1.5446319438747140e-09   1.5695446170067570e-09   1.5671682170517976e-09   1.5904673564634276e-09   1.5880364332469427e-09   1.6096742879338275e-09   1.6071907476627918e-09   1.6271234117758697e-09   1.6245892784294543e-09   1.6427767888734854e-09   1.6401941981855909e-09   1.6566006233770717e-09   1.6539718165144392e-09   1.6685653360869742e-09   1.6658926531043066e-09   1.6786456283168847e-09   1.6759315014057586e-09   1.6868205360045608e-09   1.6840674825510392e-09   1.6930734739379031e-09   1.6902840894178219e-09   1.6973922699581627e-09   1.6945692206728811e-09   1.6997691889846173e-09   1.6969152047088552e-09   1.7002009468660679e-09   1.6973188133655551e-09   1.6986887139052664e-09   1.6957812654126042e-09   1.6952381080826513e-09   1.6923082197065129e-09   1.6898591779653150e-09   1.6869097580793872e-09   1.6825663753021480e-09   1.6796003579376371e-09   1.6733785173831590e-09   1.6703988546271435e-09   1.6623187392194627e-09   1.6593283936682422e-09   1.6494144356095573e-09   1.6464163728944923e-09   1.6346971933208632e-09   1.6316943747041269e-09   1.6182027134208275e-09   1.6151980885090859e-09   1.5999707239769817e-09   1.5969672235747515e-09   1.5800448833698743e-09   1.5770454124720355e-09   1.5584726743651361e-09   1.5554801053363377e-09   1.5353052892578664e-09   1.5323224551976914e-09   1.5105975063081391e-09   1.5076271946368757e-09   1.4844075578041549e-09   1.4814525040845261e-09   1.4567969900173838e-09   1.4538598720221175e-09   1.4278305154317725e-09   1.4249139474939929e-09   1.3975758575410489e-09   1.3946823852025895e-09   1.3661035886546165e-09   1.3632356836165465e-09   1.3334869610284521e-09   1.3306470164400170e-09   1.2998017317646102e-09   1.2969920578588764e-09   1.2651259818924677e-09   1.2623488019923897e-09   1.2295399300403192e-09   1.2267973769581037e-09   1.1931257411834341e-09   1.1904198540132023e-09   1.1559673308752402e-09   1.1533000522243339e-09   1.1181501654579736e-09   1.1155233391162744e-09   1.0797610587129076e-09   1.0771764277953811e-09   1.0408879654364553e-09   1.0383471710048818e-09   1.0016197724298810e-09   9.9912435262784352e-10   9.6204608735249694e-10   9.5959747708582287e-10   9.2225702600518643e-10   9.1985655716571159e-10   8.8234299845473418e-10   8.7999190075064900e-10   8.4239449453204231e-10   8.4009389693158628e-10   8.0250186916529062e-10   8.0025280201056512e-10   7.6275512805149684e-10   7.6055852586714848e-10   7.2324371408989389e-10   7.2110041915166293e-10   6.8405629507793960e-10   6.8196706178228833e-10   6.4528055306961229e-10   6.4324605318775391e-10   6.0700297584367086e-10   6.0502380472306607e-10   5.6930865086189289e-10   5.6738533468617765e-10   5.3228106208445928e-10   5.3041406629794269e-10   4.9600188998234320e-10   4.9419162902257893e-10   4.6055081502845205e-10   4.5879766353880111e-10   4.2600532491008001e-10   4.2430963065033479e-10   3.9244052563331523e-10   3.9080262434918111e-10   3.5992895661488648e-10   3.5834918920811438e-10   3.2854040976483235e-10   3.2701914218912477e-10   2.9834175242815376e-10   2.9687939885901656e-10   2.6939675390639014e-10   2.6799380389717361e-10   2.4176591507492197e-10   2.4042296562701630e-10   2.1550630034507020e-10   2.1422409413180100e-10   1.9067137087156777e-10   1.8945084226679349e-10   1.6731081743116724e-10   1.6615314860495761e-10   1.4547039075866397e-10   1.4437708094965364e-10   1.2519172625022375e-10   1.2416467858697547e-10   1.0651215871504640e-10   1.0555379080616249e-10   8.9464521158111244e-11   8.8577908467865452e-11   7.4076919215287419e-11   7.3265984489147107e-11   6.0372469612476156e-11   5.9642238187692838e-11   4.8368986752026756e-11   4.7725937798195583e-11   3.8078596373268518e-11   3.7531156071307506e-11   2.9507250410734775e-11   2.9066498084858957e-11   2.2654117131193998e-11   2.2334814808450573e-11   1.7510841741375859e-11   1.7332960873460398e-11   1.4060789463287729e-11   1.4051803954428186e-11   1.2279025932852213e-11   1.2477252664866590e-11   1.2137611221223293e-11   1.2595385496654213e-11   1.0622594732939889e-11   1.4413852173077361e-11   4.7225531561566669e-11   3.4369311666093117e-11   6.0364045400821482e-11   6.0552758109051811e-11   7.5823892996745776e-11   7.5905315779328527e-11   9.3426121176783500e-11   9.3426121176761489e-11   1.1304160222507803e-10   1.1297803294794307e-10   1.3456487535339265e-10   1.3444954709337475e-10   1.5790187194577489e-10   1.5774265437251330e-10   1.8296425183952852e-10   1.8276626040163441e-10   2.0966648362285462e-10   2.0943282084173038e-10   2.3792417696246313e-10   2.3765646424125665e-10   2.6765307632993897e-10   2.6735185397526700e-10   2.9876844635905774e-10   2.9843347261582274e-10   3.3118470319437128e-10   3.3081517510598837e-10   3.6481520541209490e-10   3.6440992126571883e-10   3.99572151