<?xml version="1.0"?>
<VTKFile type="UnstructuredGrid"  version="0.1"  >
<UnstructuredGrid>
<Piece  NumberOfPoints="16641" NumberOfCells="32768">
<Points>
<DataArray  type="Float64"  NumberOfComponents="3"  format="ascii">0 0 0  0.0078125 0 0  0.015625 0 0  0.0234375 0 0  0.03125 0 0  0.0390625 0 0  0.046875 0 0  0.0546875 0 0  0.0625 0 0  0.0703125 0 0  0.078125 0 0  0.0859375 0 0  0.09375 0 0  0.1015625 0 0  0.109375 0 0  0.1171875 0 0  0.125 0 0  0.1328125 0 0  0.140625 0 0  0.1484375 0 0  0.15625 0 0  0.1640625 0 0  0.171875 0 0  0.1796875 0 0  0.1875 0 0  0.1953125 0 0  0.203125 0 0  0.2109375 0 0  0.21875 0 0  0.2265625 0 0  0.234375 0 0  0.2421875 0 0  0.25 0 0  0.2578125 0 0  0.265625 0 0  0.2734375 0 0  0.28125 0 0  0.2890625 0 0  0.296875 0 0  0.3046875 0 0  0.3125 0 0  0.3203125 0 0  0.328125 0 0  0.3359375 0 0  0.34375 0 0  0.3515625 0 0  0.359375 0 0  0.3671875 0 0  0.375 0 0  0.3828125 0 0  0.390625 0 0  0.3984375 0 0  0.40625 0 0  0.4140625 0 0  0.421875 0 0  0.4296875 0 0  0.4375 0 0  0.4453125 0 0  0.453125 0 0  0.4609375 0 0  0.46875 0 0  0.4765625 0 0  0.484375 0 0  0.4921875 0 0  0.5 0 0  0.5078125 0 0  0.515625 0 0  0.5234375 0 0  0.53125 0 0  0.5390625 0 0  0.546875 0 0  0.5546875 0 0  0.5625 0 0  0.5703125 0 0  0.578125 0 0  0.5859375 0 0  0.59375 0 0  0.6015625 0 0  0.609375 0 0  0.6171875 0 0  0.625 0 0  0.6328125 0 0  0.640625 0 0  0.6484375 0 0  0.65625 0 0  0.6640625 0 0  0.671875 0 0  0.6796875 0 0  0.6875 0 0  0.6953125 0 0  0.703125 0 0  0.7109375 0 0  0.71875 0 0  0.7265625 0 0  0.734375 0 0  0.7421875 0 0  0.75 0 0  0.7578125 0 0  0.765625 0 0  0.7734375 0 0  0.78125 0 0  0.7890625 0 0  0.796875 0 0  0.8046875 0 0  0.8125 0 0  0.8203125 0 0  0.828125 0 0  0.8359375 0 0  0.84375 0 0  0.8515625 0 0  0.859375 0 0  0.8671875 0 0  0.875 0 0  0.8828125 0 0  0.890625 0 0  0.8984375 0 0  0.90625 0 0  0.9140625 0 0  0.921875 0 0  0.9296875 0 0  0.9375 0 0  0.9453125 0 0  0.953125 0 0  0.9609375 0 0  0.96875 0 0  0.9765625 0 0  0.984375 0 0  0.9921875 0 0  1 0 0  0 0.0078125 0  0.0078125 0.0078125 0  0.015625 0.0078125 0  0.0234375 0.0078125 0  0.03125 0.0078125 0  0.0390625 0.0078125 0  0.046875 0.0078125 0  0.0546875 0.0078125 0  0.0625 0.0078125 0  0.0703125 0.0078125 0  0.078125 0.0078125 0  0.0859375 0.0078125 0  0.09375 0.0078125 0  0.1015625 0.0078125 0  0.109375 0.0078125 0  0.1171875 0.0078125 0  0.125 0.0078125 0  0.1328125 0.0078125 0  0.140625 0.0078125 0  0.1484375 0.0078125 0  0.15625 0.0078125 0  0.1640625 0.0078125 0  0.171875 0.0078125 0  0.1796875 0.0078125 0  0.1875 0.0078125 0  0.1953125 0.0078125 0  0.203125 0.0078125 0  0.2109375 0.0078125 0  0.21875 0.0078125 0  0.2265625 0.0078125 0  0.234375 0.0078125 0  0.2421875 0.0078125 0  0.25 0.0078125 0  0.2578125 0.0078125 0  0.265625 0.0078125 0  0.2734375 0.0078125 0  0.28125 0.0078125 0  0.2890625 0.0078125 0  0.296875 0.0078125 0  0.3046875 0.0078125 0  0.3125 0.0078125 0  0.3203125 0.0078125 0  0.328125 0.0078125 0  0.3359375 0.0078125 0  0.34375 0.0078125 0  0.3515625 0.0078125 0  0.359375 0.0078125 0  0.3671875 0.0078125 0  0.375 0.0078125 0  0.3828125 0.0078125 0  0.390625 0.0078125 0  0.3984375 0.0078125 0  0.40625 0.0078125 0  0.4140625 0.0078125 0  0.421875 0.0078125 0  0.4296875 0.0078125 0  0.4375 0.0078125 0  0.4453125 0.0078125 0  0.453125 0.0078125 0  0.4609375 0.0078125 0  0.46875 0.0078125 0  0.4765625 0.0078125 0  0.484375 0.0078125 0  0.4921875 0.0078125 0  0.5 0.0078125 0  0.5078125 0.0078125 0  0.515625 0.0078125 0  0.5234375 0.0078125 0  0.53125 0.0078125 0  0.5390625 0.0078125 0  0.546875 0.0078125 0  0.5546875 0.0078125 0  0.5625 0.0078125 0  0.5703125 0.0078125 0  0.578125 0.0078125 0  0.5859375 0.0078125 0  0.59375 0.0078125 0  0.6015625 0.0078125 0  0.609375 0.0078125 0  0.6171875 0.0078125 0  0.625 0.0078125 0  0.6328125 0.0078125 0  0.640625 0.0078125 0  0.6484375 0.0078125 0  0.65625 0.0078125 0  0.6640625 0.0078125 0  0.671875 0.0078125 0  0.6796875 0.0078125 0  0.6875 0.0078125 0  0.6953125 0.0078125 0  0.703125 0.0078125 0  0.7109375 0.0078125 0  0.71875 0.0078125 0  0.7265625 0.0078125 0  0.734375 0.0078125 0  0.7421875 0.0078125 0  0.75 0.0078125 0  0.7578125 0.0078125 0  0.765625 0.0078125 0  0.7734375 0.0078125 0  0.78125 0.0078125 0  0.7890625 0.0078125 0  0.796875 0.0078125 0  0.8046875 0.0078125 0  0.8125 0.0078125 0  0.8203125 0.0078125 0  0.828125 0.0078125 0  0.8359375 0.0078125 0  0.84375 0.0078125 0  0.8515625 0.0078125 0  0.859375 0.0078125 0  0.8671875 0.0078125 0  0.875 0.0078125 0  0.8828125 0.0078125 0  0.890625 0.0078125 0  0.8984375 0.0078125 0  0.90625 0.0078125 0  0.9140625 0.0078125 0  0.921875 0.0078125 0  0.9296875 0.0078125 0  0.9375 0.0078125 0  0.9453125 0.0078125 0  0.953125 0.0078125 0  0.9609375 0.0078125 0  0.96875 0.0078125 0  0.9765625 0.0078125 0  0.984375 0.0078125 0  0.9921875 0.0078125 0  1 0.0078125 0  0 0.015625 0  0.0078125 0.015625 0  0.015625 0.015625 0  0.0234375 0.015625 0  0.03125 0.015625 0  0.0390625 0.015625 0  0.046875 0.015625 0  0.0546875 0.015625 0  0.0625 0.015625 0  0.0703125 0.015625 0  0.078125 0.015625 0  0.0859375 0.015625 0  0.09375 0.015625 0  0.1015625 0.015625 0  0.109375 0.015625 0  0.1171875 0.015625 0  0.125 0.015625 0  0.1328125 0.015625 0  0.140625 0.015625 0  0.1484375 0.015625 0  0.15625 0.015625 0  0.1640625 0.015625 0  0.171875 0.015625 0  0.1796875 0.015625 0  0.1875 0.015625 0  0.1953125 0.015625 0  0.203125 0.015625 0  0.2109375 0.015625 0  0.21875 0.015625 0  0.2265625 0.015625 0  0.234375 0.015625 0  0.2421875 0.015625 0  0.25 0.015625 0  0.2578125 0.015625 0  0.265625 0.015625 0  0.2734375 0.015625 0  0.28125 0.015625 0  0.2890625 0.015625 0  0.296875 0.015625 0  0.3046875 0.015625 0  0.3125 0.015625 0  0.3203125 0.015625 0  0.328125 0.015625 0  0.3359375 0.015625 0  0.34375 0.015625 0  0.3515625 0.015625 0  0.359375 0.015625 0  0.3671875 0.015625 0  0.375 0.015625 0  0.3828125 0.015625 0  0.390625 0.015625 0  0.3984375 0.015625 0  0.40625 0.015625 0  0.4140625 0.015625 0  0.421875 0.015625 0  0.4296875 0.015625 0  0.4375 0.015625 0  0.4453125 0.015625 0  0.453125 0.015625 0  0.4609375 0.015625 0  0.46875 0.015625 0  0.4765625 0.015625 0  0.484375 0.015625 0  0.4921875 0.015625 0  0.5 0.015625 0  0.5078125 0.015625 0  0.515625 0.015625 0  0.5234375 0.015625 0  0.53125 0.015625 0  0.5390625 0.015625 0  0.546875 0.015625 0  0.5546875 0.015625 0  0.5625 0.015625 0  0.5703125 0.015625 0  0.578125 0.015625 0  0.5859375 0.015625 0  0.59375 0.015625 0  0.6015625 0.015625 0  0.609375 0.015625 0  0.6171875 0.015625 0  0.625 0.015625 0  0.6328125 0.015625 0  0.640625 0.015625 0  0.6484375 0.015625 0  0.65625 0.015625 0  0.6640625 0.015625 0  0.671875 0.015625 0  0.6796875 0.015625 0  0.6875 0.015625 0  0.6953125 0.015625 0  0.703125 0.015625 0  0.7109375 0.015625 0  0.71875 0.015625 0  0.7265625 0.015625 0  0.734375 0.015625 0  0.7421875 0.015625 0  0.75 0.015625 0  0.7578125 0.015625 0  0.765625 0.015625 0  0.7734375 0.015625 0  0.78125 0.015625 0  0.7890625 0.015625 0  0.796875 0.015625 0  0.8046875 0.015625 0  0.8125 0.015625 0  0.8203125 0.015625 0  0.828125 0.015625 0  0.8359375 0.015625 0  0.84375 0.015625 0  0.8515625 0.015625 0  0.859375 0.015625 0  0.8671875 0.015625 0  0.875 0.015625 0  0.8828125 0.015625 0  0.890625 0.015625 0  0.8984375 0.015625 0  0.90625 0.015625 0  0.9140625 0.015625 0  0.921875 0.015625 0  0.9296875 0.015625 0  0.9375 0.015625 0  0.9453125 0.015625 0  0.953125 0.015625 0  0.9609375 0.015625 0  0.96875 0.015625 0  0.9765625 0.015625 0  0.984375 0.015625 0  0.9921875 0.015625 0  1 0.015625 0  0 0.0234375 0  0.0078125 0.0234375 0  0.015625 0.0234375 0  0.0234375 0.0234375 0  0.03125 0.0234375 0  0.0390625 0.0234375 0  0.046875 0.0234375 0  0.0546875 0.0234375 0  0.0625 0.0234375 0  0.0703125 0.0234375 0  0.078125 0.0234375 0  0.0859375 0.0234375 0  0.09375 0.0234375 0  0.1015625 0.0234375 0  0.109375 0.0234375 0  0.1171875 0.0234375 0  0.125 0.0234375 0  0.1328125 0.0234375 0  0.140625 0.0234375 0  0.1484375 0.0234375 0  0.15625 0.0234375 0  0.1640625 0.0234375 0  0.171875 0.0234375 0  0.1796875 0.0234375 0  0.1875 0.0234375 0  0.1953125 0.0234375 0  0.203125 0.0234375 0  0.2109375 0.0234375 0  0.21875 0.0234375 0  0.2265625 0.0234375 0  0.234375 0.0234375 0  0.2421875 0.0234375 0  0.25 0.0234375 0  0.2578125 0.0234375 0  0.265625 0.0234375 0  0.2734375 0.0234375 0  0.28125 0.0234375 0  0.2890625 0.0234375 0  0.296875 0.0234375 0  0.3046875 0.0234375 0  0.3125 0.0234375 0  0.3203125 0.0234375 0  0.328125 0.0234375 0  0.3359375 0.0234375 0  0.34375 0.0234375 0  0.3515625 0.0234375 0  0.359375 0.0234375 0  0.3671875 0.0234375 0  0.375 0.0234375 0  0.3828125 0.0234375 0  0.390625 0.0234375 0  0.3984375 0.0234375 0  0.40625 0.0234375 0  0.4140625 0.0234375 0  0.421875 0.0234375 0  0.4296875 0.0234375 0  0.4375 0.0234375 0  0.4453125 0.0234375 0  0.453125 0.0234375 0  0.4609375 0.0234375 0  0.46875 0.0234375 0  0.4765625 0.0234375 0  0.484375 0.0234375 0  0.4921875 0.0234375 0  0.5 0.0234375 0  0.5078125 0.0234375 0  0.515625 0.0234375 0  0.5234375 0.0234375 0  0.53125 0.0234375 0  0.5390625 0.0234375 0  0.546875 0.0234375 0  0.5546875 0.0234375 0  0.5625 0.0234375 0  0.5703125 0.0234375 0  0.578125 0.0234375 0  0.5859375 0.0234375 0  0.59375 0.0234375 0  0.6015625 0.0234375 0  0.609375 0.0234375 0  0.6171875 0.0234375 0  0.625 0.0234375 0  0.6328125 0.0234375 0  0.640625 0.0234375 0  0.6484375 0.0234375 0  0.65625 0.0234375 0  0.6640625 0.0234375 0  0.671875 0.0234375 0  0.6796875 0.0234375 0  0.6875 0.0234375 0  0.6953125 0.0234375 0  0.703125 0.0234375 0  0.7109375 0.0234375 0  0.71875 0.0234375 0  0.7265625 0.0234375 0  0.734375 0.0234375 0  0.7421875 0.0234375 0  0.75 0.0234375 0  0.7578125 0.0234375 0  0.765625 0.0234375 0  0.7734375 0.0234375 0  0.78125 0.0234375 0  0.7890625 0.0234375 0  0.796875 0.0234375 0  0.8046875 0.0234375 0  0.8125 0.0234375 0  0.8203125 0.0234375 0  0.828125 0.0234375 0  0.8359375 0.0234375 0  0.84375 0.0234375 0  0.8515625 0.0234375 0  0.859375 0.0234375 0  0.8671
[...]
<CellData  Scalars="f_65293"> 
<DataArray  type="Float64"  Name="f_65293"  format="ascii">5.7439009170503433e-13   5.7439009170258237e-13   1.0023515012014404e-12   1.3009772869100991e-12   1.5278735730039208e-12   2.0601739558321285e-12   2.1473693013323064e-12   2.9565985937124646e-12   2.8575120381590476e-12   3.9845350778095200e-12   3.6550754565238329e-12   5.1389002092181294e-12   4.5368343926051066e-12   6.4147912946728619e-12   5.4995340643565092e-12   7.8073461023663711e-12   6.5398760999078521e-12   9.3116875328167506e-12   7.6545088688289612e-12   1.0922893403404646e-11   8.8400201603004963e-12   1.2635976760578015e-11   1.0092931990545008e-11   1.4445872597116601e-11   1.1409697393798968e-11   1.6347429273358567e-11   1.2786698972909376e-11   1.8335403614038280e-11   1.4220248963086382e-11   2.0404458937866449e-11   1.5706590579143506e-11   2.2549165456893300e-11   1.7241900448668188e-11   2.4764002608809322e-11   1.8822291966793533e-11   2.7043362987323571e-11   2.0443819436840547e-11   2.9381557602070860e-11   2.2102482886377494e-11   3.1772822262859883e-11   2.3794233464395123e-11   3.4211324914473324e-11   2.5514979342403772e-11   3.6691173785110165e-11   2.7260592052971442e-11   3.9206426233246002e-11   2.9026913207054207e-11   4.1751098193812701e-11   3.0809761538974504e-11   4.4319174137700753e-11   3.2604940233276233e-11   4.6904617470909577e-11   3.4408244492107073e-11   4.9501381305859880e-11   3.6215469303681119e-11   5.2103419543971777e-11   3.8022417375974379e-11   5.4704698211601745e-11   3.9824907202195661e-11   5.7299207000171323e-11   4.1618781226187480e-11   5.9880970958885753e-11   4.3399914075663764e-11   6.2444062294910851e-11   4.5164220835417356e-11   6.4982612235011021e-11   4.6907665330148144e-11   6.7490822909176869e-11   4.8626268389925097e-11   6.9962979208017808e-11   5.0316116074920554e-11   7.2393460588756091e-11   5.1973367826337665e-11   7.4776752772189450e-11   5.3594264524615559e-11   7.7107459311366983e-11   5.5175136427780054e-11   7.9380312983331517e-11   5.6712410966685966e-11   8.1590186979073465e-11   5.8202620373895993e-11   8.3732105850407455e-11   5.9642409123400822e-11   8.5801256185752795e-11   6.1028541160449670e-11   8.7792996979912933e-11   6.2357906901085114e-11   8.9702869675636452e-11   6.3627529978942347e-11   9.1526607834250557e-11   6.4834573722965401e-11   9.3260146422908564e-11   6.5976347346303021e-11   9.4899630679485766e-11   6.7050311827789853e-11   9.6441424537906066e-11   6.8054085472745119e-11   9.7882118585142832e-11   6.8985449132287572e-11   9.9218537531776137e-11   6.9842351070815741e-11   1.0044774716508635e-10   7.0622911467881573e-11   1.0156706078426420e-10   7.1325426536885774e-11   1.0257404507409273e-10   7.1948372254283965e-11   1.0346652542211066e-10   7.2490407686188112e-11   1.0424259065051841e-10   7.2950377901833826e-11   1.0490059715609147e-10   7.3327316467525231e-11   1.0543917244127311e-10   7.3620447512947564e-11   1.0585721803027279e-10   7.3829187361261485e-11   1.0615391175639122e-10   7.3953145722262381e-11   1.0632870941813694e-10   7.3992126439478986e-11   1.0638134579304025e-10   7.3946127792792990e-11   1.0631183501148980e-10   7.3815342351092154e-11   1.0612047028104541e-10   7.3600156377979221e-11   1.0580782296799616e-10   7.3301148787663957e-11   1.0537474102992417e-10   7.2919089654159557e-11   1.0482234680699426e-10   7.2454938278947882e-11   1.0415203417458256e-10   7.1909840815319280e-11   1.0336546506153028e-10   7.1285127461567484e-11   1.0246456534383060e-10   7.0582309222788417e-11   1.0145152012365833e-10   6.9803074252323198e-11   1.0032876839693486e-10   6.8949283781290130e-11   9.9098997134346160e-11   6.8022967642388853e-11   9.7765134776538261e-11   6.7026319402238947e-11   9.6330344168676186e-11   6.5961691110920046e-11   9.4798014943316889e-11   6.4831587680803962e-11   9.3171755373940384e-11   6.3638660910768016e-11   9.1455383716919677e-11   6.2385703166688563e-11   8.9652919064285434e-11   6.1075640734138550e-11   8.7768571723557752e-11   5.9711526860282463e-11   8.5806733155902226e-11   5.8296534499153453e-11   8.3771965488185559e-11   5.6833948778967270e-11   8.1668990628877993e-11   5.5327159208184299e-11   7.9502679012260599e-11   5.3779651640042598e-11   7.7278037997948549e-11   5.2195000012784859e-11   7.5000199952419613e-11   5.0576857885900649e-11   7.2674410041588824e-11   4.8928949792317386e-11   7.0306013763746076e-11   4.7255062424510363e-11   6.7900444250630676e-11   4.5559035678048757e-11   6.5463209366490058e-11   4.3844753569900389e-11   6.2999878638991927e-11   4.2116135054485021e-11   6.0516070044771094e-11   4.0377124756709349e-11   5.8017436690167854e-11   3.8631683642001042e-11   5.5509653406303476e-11   3.6883779644906999e-11   5.2998403298261864e-11   3.5137378275661538e-11   5.0489364272101779e-11   3.3396433223437599e-11   4.7988195573211910e-11   3.1664876976213906e-11   4.5500524360847135e-11   2.9946611474964767e-11   4.3031932350964491e-11   2.8245498819332722e-11   4.0587942551535973e-11   2.6565352040250929e-11   3.8174006116212913e-11   2.4909925955277385e-11   3.5795489342266809e-11   2.3282908117815704e-11   3.3457660832459692e-11   2.1687909871568061e-11   3.1165678841750184e-11   2.0128457518274026e-11   2.8924578826702446e-11   1.8607983601651931e-11   2.6739261207761038e-11   1.7129818308984327e-11   2.4614479356602377e-11   1.5697180983832295e-11   2.2554827807981418e-11   1.4313171738494445e-11   2.0564730696209508e-11   1.2980763143273496e-11   1.8648430399286379e-11   1.1702791959910940e-11   1.6809976367917762e-11   1.0481950869196751e-11   1.5053214098659192e-11   9.3207801200713932e-12   1.3381774188688331e-11   8.2216589978634617e-12   1.1799061382024062e-11   7.1867969636255160e-12   1.0308243475954246e-11   6.2182242524849658e-12   8.9122398975589403e-12   5.3177816212962904e-12   7.6137096759752687e-12   4.4871087848513733e-12   6.4150384060783065e-12   3.7276308390237136e-12   5.3183236006141169e-12   3.0405415679028622e-12   4.3253575082275583e-12   2.4267818342339199e-12   3.4376059466676007e-12   1.8870099742045120e-12   2.6561807891392120e-12   1.4215586257098969e-12   1.9818021052928701e-12   1.0303671772258812e-12   1.4147428594372034e-12   7.1286689091784223e-13   9.5474284278776100e-13   4.6776399262594606e-13   6.0086502027195941e-13   2.9256900863847298e-13   3.5123543159814940e-13   1.8235384508314244e-13   2.0252511491204516e-13   1.0416703686685945e-13   1.4883892783711680e-13   1.3009772869003369e-12   1.0023515011826745e-12   1.9867046950409883e-12   1.9867046950329605e-12   2.8208891750135168e-12   2.8122748878639333e-12   3.7921949726120962e-12   3.7789770782266301e-12   4.8933903887239476e-12   4.8773968081386809e-12   6.1185759347096117e-12   6.1006617097774971e-12   7.4624153333691389e-12   7.4429504366226665e-12   8.9198092122704777e-12   8.8989177110865888e-12   1.0485738338676794e-11   1.0463415482633543e-11   1.2155184049824759e-11   1.2131354648205780e-11   1.3923085528606930e-11   1.3897634280302771e-11   1.5784315902727434e-11   1.5757104008607491e-11   1.7733668852641006e-11   1.7704543657474312e-11   1.9765851638934890e-11   1.9734652575217866e-11   2.1875482376581072e-11   2.1842044858750477e-11   2.4057090307294967e-11   2.4021248442005319e-11   2.6305118301870799e-11   2.6266706883472158e-11   2.8613927086310846e-11   2.8572783144840532e-11   3.0977800844432927e-11   3.0933764897318612e-11   3.3390953943726588e-11   3.3343871046239102e-11   3.5847538592607666e-11   3.5797259240946755e-11   3.8341653282907762e-11   3.8288034205945742e-11   4.0867351895928723e-11   4.0810256757970790e-11   4.3418653371654261e-11   4.3357953400684848e-11   4.5989551858627396e-11   4.5925126409583851e-11   4.8574027268848599e-11   4.8505764328451953e-11   5.1166056172252104e-11   5.1093852810089913e-11   5.3759622970127315e-11   5.3683385738835421e-11   5.6348731295234444e-11   5.6268376582265962e-11   5.8927415585425483e-11   5.8842869918829713e-11   6.1489752783164133e-11   6.1400953091208518e-11   6.4029874115583785e-11   6.3936767943806425e-11   6.6541976912856168e-11   6.6444522597083890e-11   6.9020336420181331e-11   6.8918503219817252e-11   7.1459317569759774e-11   7.1353085757239475e-11   7.3853386662861066e-11   7.3742747577234017e-11   7.6197122937755957e-11   7.6082078995956239e-11   7.8485229976710618e-11   7.8365794650618806e-11   8.0712546924210211e-11   8.0588744677683823e-11   8.2874059477420077e-11   8.2745925670724251e-11   8.4964910618848235e-11   8.4832491376844723e-11   8.6980411057387999e-11   8.6843763106136024e-11   8.8916049354168484e-11   8.8775239823415235e-11   9.0767501689450102e-11   9.0622607887489477e-11   9.2530641259719582e-11   9.2381750415330394e-11   9.4201547264671187e-11   9.4048756244458580e-11   9.5776513464691367e-11   9.5619928460797283e-11   9.7252056284168773e-11   9.7091792479123339e-11   9.8624922435229121e-11   9.8461103640758736e-11   9.9892096040272489e-11   9.9724854317116454e-11   1.0105080523961927e-10   1.0088028049106993e-10   1.0209852825174344e-10   1.0192486780390539e-10   1.0303299888517107e-10   1.0285635704471055e-10   1.0385221147172417e-10   1.0367274907091353e-10   1.0455442521738418e-10   1.0437230914145783e-10   1.0513816795194405e-10   1.0495357065615615e-10   1.0560223926712589e-10   1.0541533828014438e-10   1.0594571303651372e-10   1.0575669045470035e-10   1.0616793930564175e-10   1.0597698127953239e-10   1.0626854554728665e-10   1.0607584176086274e-10   1.0624743727939101e-10   1.0605318042416518e-10   1.0610479803926614e-10   1.0590918328635465e-10   1.0584108871485996e-10   1.0564431318285327e-10   1.0545704623162690e-10   1.0525930845626388e-10   1.0495368159857907e-10   1.0475518100202889e-10   1.0433227731832769e-10   1.0413321368333621e-10   1.0359438415952816e-10   1.0339495710547429e-10   1.0274181730903766e-10   1.0254222577643488e-10   1.0177665190458845e-10   1.0157709364429048e-10   1.0070121795686882e-10   1.0050188903237628e-10   9.9518094681135472e-11   9.9319188975712106e-11   9.8230104241315663e-11   9.8031812981782849e-11   9.6840304927814417e-11   9.6642816218170100e-11   9.5351983783966552e-11   9.5155482156486778e-11   9.3768648692000881e-11   9.3573314671252007e-11   9.2094019948538854e-11   9.1900029634999619e-11   9.0332021339905222e-11   9.0139546011004418e-11   8.8486770741307949e-11   8.8295976473113136e-11   8.6562570266206244e-11   8.6373617575157726e-11   8.4563895981024920e-11   8.4376939488645580e-11   8.2495387217964876e-11   8.2310575339280149e-11   8.0361835505053257e-11   8.0179310160904042e-11   7.8168173146172313e-11   7.7988069502913428e-11   7.5919461468993933e-11   7.5741907703843082e-11   7.3620878778478444e-11   7.3445995874085072e-11   7.1277708038189746e-11   7.1105609606349153e-11   6.8895324310324152e-11   6.8726116446800740e-11   6.6479181983449078e-11   6.6312963155385697e-11   6.4034801819423529e-11   6.3871662784284989e-11   6.1567757846597221e-11   6.1407781609270339e-11   5.9083664132909119e-11   5.8926925935200241e-11   5.6588161466058049e-11   5.6434728817868990e-11   5.4086903973377968e-11   5.3936836721392373e-11   5.1585545709129990e-11   5.1438896148917140e-11   4.9089727240861720e-11   4.8946540271884783e-11   4.6605062261351567e-11   4.6465375590313309e-11   4.4137124257121929e-11   4.4000968650086962e-11   4.1691433256669149e-11   4.1558832845438331e-11   3.9273442689656369e-11   3.9144415335635218e-11   3.6888526376594618e-11   3.6763084097544195e-11   3.4541965673927278e-11   3.4420115139502593e-11   3.2238936795079881e-11   3.2120679899103106e-11   2.9984498324764209e-11   2.9869832842097428e-11   2.7783578939504729e-11   2.7672499280302411e-11   2.5640965346678642e-11   2.5533463420193292e-11   2.3561290444824370e-11   2.3457356652105265e-11   2.1549021704554906e-11   2.1448646080127494e-11   1.9608449759832695e-11   1.9511623293081331e-11   1.7743677187892905e-11   1.7650393359575987e-11   1.5958607443548904e-11   1.5868864026735171e-11   1.4256933892174327e-11   1.4170735082337173e-11   1.2642128861992258e-11   1.2559487823858003e-11   1.1117432598666527e-11   1.1038374550121786e-11   9.6858419551288136e-12   9.6104079572122016e-12   8.3500985754025721e-12   8.2783502689905114e-12   7.1126762227650353e-12   7.0447018648826400e-12   5.9757667370379439e-12   5.9116890651707579e-12   4.9412638496355677e-12   4.8812505896833016e-12   4.0107436741623508e-12   3.9550219891673733e-12   3.1854400167204280e-12   3.1343170315614784e-12   2.4662115120647409e-12   2.4201045550256279e-12   1.8534956237996434e-12   1.8129786340608438e-12   1.3472410677899198e-12   1.3131190411885397e-12   9.4680401868235927e-13   9.2023825718911609e-13   6.5078281392997807e-13   6.3351262004270769e-13   4.5675271685169219e-13   4.5150929246124938e-13   3.6091506711781202e-13   3.7221410984693439e-13   2.8647833063144465e-13   3.9395053360941189e-13   2.0601739557993269e-12   1.5278735729589980e-12   2.8122748878505086e-12   2.8208891749762170e-12   3.7143895412231218e-12   3.7143895412104515e-12   4.7533784448272034e-12   4.7476546482173253e-12   5.9207715543274351e-12   5.9109438099667396e-12   7.2099115555134940e-12   7.1969539317005412e-12   8.6149665975422760e-12   8.5994632559445190e-12   1.0130502805123373e-11   1.0112784632389697e-11   1.1751269988491644e-11   1.1731502424331633e-11   1.3472084192687527e-11   1.3450324963556028e-11   1.5287761077536925e-11   1.5263997528018014e-11   1.7193077647526826e-11   1.7167250803343748e-11   1.9182750417977326e-11   1.9154770687311431e-11   2.1251423527132392e-11   2.1221181173207018e-11   2.3393663162417053e-11   2.3361035481794069e-11   2.5603956193657305e-11   2.5568812586215777e-11   2.7876711748247920e-11   2.7838917408731938e-11   3.0206264928192833e-11   3.0165683617778710e-11   3.2586882153225144e-11   3.2543378338262150e-11   3.5012767765967824e-11   3.4966208314439893e-11   3.7478071652982347e-11   3.7428327209103062e-11   3.9976897690316264e-11   3.9923843810953272e-11   4.2503312870138507e-11   4.2446830978965042e-11   4.5051356994323153e-11   4.4991335192122513e-11   4.7615052840604551e-11   4.7551386598902576e-11   5.0188416721453282e-11   5.0121009478723294e-11   5.2765469364509445e-11   5.2694233039585447e-11   5.5340247055115077e-11   5.5265102486907211e-11   5.7906812984785278e-11   5.7827690307473432e-11   6.0459268750166163e-11   6.0376107709260715e-11   6.2991765960423678e-11   6.2904516173248294e-11   6.5498517901617817e-11   6.5407139068140470e-11   6.7973811219386337e-11   6.7878273283790243e-11   7.0412017574496310e-11   7.0312300843267269e-11   7.2807605238645987e-11   7.2703700452666520e-11   7.5155150581500132e-11   7.5047058950906770e-11   7.7449349423843475e-11   7.7337082619234990e-11   7.9685028211667994e-11   7.9568608321574063e-11   8.1857154985325630e-11   8.1736614433732933e-11   8.3960850102404520e-11   8.3836231535374047e-11   8.5991396687586695e-11   8.5862752823697342e-11   8.7944250778792970e-11   8.7811644230141096e-11   8.9815051135756300e-11   8.9678554196091539e-11   9.1599628685861449e-11   9.1459323093666330e-11   9.3294015581861790e-11   9.3149992252431074e-11   9.4894453837312283e-11   9.4746812571510876e-11   9.6397403526581567e-11   9.6246252693215854e-11   9.7799550514477234e-11   9.7645006711297332e-11   9.9097813703672695e-11   9.8940001395732980e-11   1.0028935176705831e-10   1.0012840290695449e-10   1.0137156936379106e-10   1.0120762299044366e-10   1.0234212279890624e-10   1.0217532462305266e-10   1.0319892512986189e-10   1.0302942710093880e-10   1.0394015069215315e-10   1.0376811055425710e-10   1.0456423903865451e-10   1.0438981987085804e-10   1.0506989827399599e-10   1.0489326802348501e-10   1.0545610778230244e-10   1.0527743878583490e-10   1.0572212033010726e-10   1.0554158882868338e-10   1.0586746354636234e-10   1.0568524919467560e-10   1.0589194076757751e-10   1.0570822613739138e-10   1.0579563125043356e-10   1.0561060133153292e-10   1.0557888974128559e-10   1.0539273144196412e-10   1.0524234541330996e-10   1.0505524705876637e-10   1.0478690016201969e-10   1.0459905099706589e-10   1.0421372627159471e-10   1.0402531596349263e-10   1.0352426344569619e-10   1.0333548159432836e-10   1.0272021522065342e-10   1.0253125087183251e-10   1.0180354476022717e-10   1.0161458592912615e-10   1.0077647004510927e-10   1.0058770324521848e-10   9.9641458464008832e-11   9.9453068250855203e-11   9.8401220826955488e-11   9.8213389347742220e-11   9.7058704804286683e-11   9.6871611365357007e-11   9.5617087816975770e-11   9.5430908461551344e-11   9.4079769380535951e-11   9.3894676485579780e-11   9.2450362940300085e-11   9.2266524826401142e-11   9.0732687199076614e-11   9.0550267760987196e-11   8.8930756968837264e-11   8.8749915323761632e-11   8.7048773561691885e-11   8.6869663718225932e-11   8.5091114748423878e-11   8.4913885296997384e-11   8.3062324304384053e-11   8.2887118130424502e-11   8.0967101168805700e-11   8.0794055189980867e-11   7.8810288245990843e-11   7.8639533173438999e-11   7.6596860868247463e-11   7.6428520995054798e-11   7.4331914956907732e-11   7.4166107973028383e-11   7.2020654901984019e-11   7.1857491738345593e-11   6.9668381194081664e-11   6.9507965895569976e-11   6.7280477833768780e-11   6.7122907463534206e-11   6.4862399550900664e-11   6.4707764127214721e-11   6.2419658865003122e-11   6.2268041330515971e-11   5.9957813009546844e-11   5.9809289238225633e-11   5.7482450762819496e-11   5.7337089600205463e-11   5.4999179199397692e-11   5.4857042545043662e-11   5.2513610409297644e-11   5.2374753337644922e-11   5.0031348200142434e-11   4.9895819125565733e-11   4.7557974821516398e-11   4.7425815708145315e-11   4.5099037733636959e-11   4.4970284355356529e-11   4.2660036452452627e-11   4.2534718704125726e-11   4.0246409496356711e-11   4.0124551762387752e-11   3.7863521458282961e-11   3.7745143042737508e-11   3.5516650231925600e-11   3.5401765856926854e-11   3.3210974409805684e-11   3.3099594788467725e-11   3.0951560875399597e-11   3.0843693370053755e-11   2.8743352607105881e-11   2.8639001981603816e-11   2.6591156706450720e-11   2.6490325988561796e-11   2.4499632662985429e-11   2.4402324131737174e-11   2.2473280857758744e-11   2.2379497178970563e-11   2.0516431309518205e-11   2.0426176844628246e-11   1.8633232649130974e-11   1.8546514974420827e-11   1.6827641308459269e-11   1.6744472987509442e-11   1.5103410890397305e-11   1.5023811559789209e-11   1.3464081673269156e-11   1.3388080518825621e-11   1.1912970180167469e-11   1.1840608908132924e-11   1.0453158715177647e-11   1.0384495159579452e-11   9.0874847278577158e-12   9.0225972895645204e-12   7.8185298147767412e-12   7.7575230046903863e-12   6.6486080896420827e-12   6.5916195645973454e-12   5.5797535514128721e-12   5.5269632035777007e-12   4.6137059323342197e-12   4.5653478568134597e-12   3.7518943112986843e-12   3.7082728820809770e-12   2.9954175131081554e-12   2.9569294287160698e-12   2.3450200000518733e-12   2.3121851436947193e-12   1.8010616568183805e-12   1.7745671562595901e-12   1.3634798438524289e-12   1.3442441427953363e-12   1.0317432834727903e-12   1.0210109359644681e-12   8.0480407878910476e-13   8.0428794908324450e-13   6.8109173161717991e-13   6.9318079114047724e-13   6.5881926598544960e-13   6.8678283029603563e-13   5.7485562030183448e-13   7.8544505230545154e-13   2.9565985936445094e-12   2.1473693012534738e-12   3.7789770781792909e-12   3.7921949725332637e-12   4.7476546482065251e-12   4.7533784447910837e-12   5.8507185104907705e-12   5.8507185104791108e-12   7.0796680676019950e-12   7.0751713892258150e-12   8.4276407162805351e-12   8.4194644637322171e-12   9.8885747514139510e-12   9.8772684636958337e-12   1.1456821509818579e-11   1.1442747722507621e-11   1.3126944765404946e-11   1.3110329428039138e-11   1.4893605790371479e-11   1.4874574449365548e-11   1.6751493690592953e-11   1.6730098698467065e-11   1.8695282518696997e-11   1.8671523365171824e-11   2.0719605176505533e-11   2.0693443494180990e-11   2.2819038186996804e-11   2.2790408778194436e-11   2.49880936