<?xml version="1.0"?>
<VTKFile type="UnstructuredGrid"  version="0.1"  >
<UnstructuredGrid>
<Piece  NumberOfPoints="16641" NumberOfCells="32768">
<Points>
<DataArray  type="Float64"  NumberOfComponents="3"  format="ascii">0 0 0  0.0078125 0 0  0.015625 0 0  0.0234375 0 0  0.03125 0 0  0.0390625 0 0  0.046875 0 0  0.0546875 0 0  0.0625 0 0  0.0703125 0 0  0.078125 0 0  0.0859375 0 0  0.09375 0 0  0.1015625 0 0  0.109375 0 0  0.1171875 0 0  0.125 0 0  0.1328125 0 0  0.140625 0 0  0.1484375 0 0  0.15625 0 0  0.1640625 0 0  0.171875 0 0  0.1796875 0 0  0.1875 0 0  0.1953125 0 0  0.203125 0 0  0.2109375 0 0  0.21875 0 0  0.2265625 0 0  0.234375 0 0  0.2421875 0 0  0.25 0 0  0.2578125 0 0  0.265625 0 0  0.2734375 0 0  0.28125 0 0  0.2890625 0 0  0.296875 0 0  0.3046875 0 0  0.3125 0 0  0.3203125 0 0  0.328125 0 0  0.3359375 0 0  0.34375 0 0  0.3515625 0 0  0.359375 0 0  0.3671875 0 0  0.375 0 0  0.3828125 0 0  0.390625 0 0  0.3984375 0 0  0.40625 0 0  0.4140625 0 0  0.421875 0 0  0.4296875 0 0  0.4375 0 0  0.4453125 0 0  0.453125 0 0  0.4609375 0 0  0.46875 0 0  0.4765625 0 0  0.484375 0 0  0.4921875 0 0  0.5 0 0  0.5078125 0 0  0.515625 0 0  0.5234375 0 0  0.53125 0 0  0.5390625 0 0  0.546875 0 0  0.5546875 0 0  0.5625 0 0  0.5703125 0 0  0.578125 0 0  0.5859375 0 0  0.59375 0 0  0.6015625 0 0  0.609375 0 0  0.6171875 0 0  0.625 0 0  0.6328125 0 0  0.640625 0 0  0.6484375 0 0  0.65625 0 0  0.6640625 0 0  0.671875 0 0  0.6796875 0 0  0.6875 0 0  0.6953125 0 0  0.703125 0 0  0.7109375 0 0  0.71875 0 0  0.7265625 0 0  0.734375 0 0  0.7421875 0 0  0.75 0 0  0.7578125 0 0  0.765625 0 0  0.7734375 0 0  0.78125 0 0  0.7890625 0 0  0.796875 0 0  0.8046875 0 0  0.8125 0 0  0.8203125 0 0  0.828125 0 0  0.8359375 0 0  0.84375 0 0  0.8515625 0 0  0.859375 0 0  0.8671875 0 0  0.875 0 0  0.8828125 0 0  0.890625 0 0  0.8984375 0 0  0.90625 0 0  0.9140625 0 0  0.921875 0 0  0.9296875 0 0  0.9375 0 0  0.9453125 0 0  0.953125 0 0  0.9609375 0 0  0.96875 0 0  0.9765625 0 0  0.984375 0 0  0.9921875 0 0  1 0 0  0 0.0078125 0  0.0078125 0.0078125 0  0.015625 0.0078125 0  0.0234375 0.0078125 0  0.03125 0.0078125 0  0.0390625 0.0078125 0  0.046875 0.0078125 0  0.0546875 0.0078125 0  0.0625 0.0078125 0  0.0703125 0.0078125 0  0.078125 0.0078125 0  0.0859375 0.0078125 0  0.09375 0.0078125 0  0.1015625 0.0078125 0  0.109375 0.0078125 0  0.1171875 0.0078125 0  0.125 0.0078125 0  0.1328125 0.0078125 0  0.140625 0.0078125 0  0.1484375 0.0078125 0  0.15625 0.0078125 0  0.1640625 0.0078125 0  0.171875 0.0078125 0  0.1796875 0.0078125 0  0.1875 0.0078125 0  0.1953125 0.0078125 0  0.203125 0.0078125 0  0.2109375 0.0078125 0  0.21875 0.0078125 0  0.2265625 0.0078125 0  0.234375 0.0078125 0  0.2421875 0.0078125 0  0.25 0.0078125 0  0.2578125 0.0078125 0  0.265625 0.0078125 0  0.2734375 0.0078125 0  0.28125 0.0078125 0  0.2890625 0.0078125 0  0.296875 0.0078125 0  0.3046875 0.0078125 0  0.3125 0.0078125 0  0.3203125 0.0078125 0  0.328125 0.0078125 0  0.3359375 0.0078125 0  0.34375 0.0078125 0  0.3515625 0.0078125 0  0.359375 0.0078125 0  0.3671875 0.0078125 0  0.375 0.0078125 0  0.3828125 0.0078125 0  0.390625 0.0078125 0  0.3984375 0.0078125 0  0.40625 0.0078125 0  0.4140625 0.0078125 0  0.421875 0.0078125 0  0.4296875 0.0078125 0  0.4375 0.0078125 0  0.4453125 0.0078125 0  0.453125 0.0078125 0  0.4609375 0.0078125 0  0.46875 0.0078125 0  0.4765625 0.0078125 0  0.484375 0.0078125 0  0.4921875 0.0078125 0  0.5 0.0078125 0  0.5078125 0.0078125 0  0.515625 0.0078125 0  0.5234375 0.0078125 0  0.53125 0.0078125 0  0.5390625 0.0078125 0  0.546875 0.0078125 0  0.5546875 0.0078125 0  0.5625 0.0078125 0  0.5703125 0.0078125 0  0.578125 0.0078125 0  0.5859375 0.0078125 0  0.59375 0.0078125 0  0.6015625 0.0078125 0  0.609375 0.0078125 0  0.6171875 0.0078125 0  0.625 0.0078125 0  0.6328125 0.0078125 0  0.640625 0.0078125 0  0.6484375 0.0078125 0  0.65625 0.0078125 0  0.6640625 0.0078125 0  0.671875 0.0078125 0  0.6796875 0.0078125 0  0.6875 0.0078125 0  0.6953125 0.0078125 0  0.703125 0.0078125 0  0.7109375 0.0078125 0  0.71875 0.0078125 0  0.7265625 0.0078125 0  0.734375 0.0078125 0  0.7421875 0.0078125 0  0.75 0.0078125 0  0.7578125 0.0078125 0  0.765625 0.0078125 0  0.7734375 0.0078125 0  0.78125 0.0078125 0  0.7890625 0.0078125 0  0.796875 0.0078125 0  0.8046875 0.0078125 0  0.8125 0.0078125 0  0.8203125 0.0078125 0  0.828125 0.0078125 0  0.8359375 0.0078125 0  0.84375 0.0078125 0  0.8515625 0.0078125 0  0.859375 0.0078125 0  0.8671875 0.0078125 0  0.875 0.0078125 0  0.8828125 0.0078125 0  0.890625 0.0078125 0  0.8984375 0.0078125 0  0.90625 0.0078125 0  0.9140625 0.0078125 0  0.921875 0.0078125 0  0.9296875 0.0078125 0  0.9375 0.0078125 0  0.9453125 0.0078125 0  0.953125 0.0078125 0  0.9609375 0.0078125 0  0.96875 0.0078125 0  0.9765625 0.0078125 0  0.984375 0.0078125 0  0.9921875 0.0078125 0  1 0.0078125 0  0 0.015625 0  0.0078125 0.015625 0  0.015625 0.015625 0  0.0234375 0.015625 0  0.03125 0.015625 0  0.0390625 0.015625 0  0.046875 0.015625 0  0.0546875 0.015625 0  0.0625 0.015625 0  0.0703125 0.015625 0  0.078125 0.015625 0  0.0859375 0.015625 0  0.09375 0.015625 0  0.1015625 0.015625 0  0.109375 0.015625 0  0.1171875 0.015625 0  0.125 0.015625 0  0.1328125 0.015625 0  0.140625 0.015625 0  0.1484375 0.015625 0  0.15625 0.015625 0  0.1640625 0.015625 0  0.171875 0.015625 0  0.1796875 0.015625 0  0.1875 0.015625 0  0.1953125 0.015625 0  0.203125 0.015625 0  0.2109375 0.015625 0  0.21875 0.015625 0  0.2265625 0.015625 0  0.234375 0.015625 0  0.2421875 0.015625 0  0.25 0.015625 0  0.2578125 0.015625 0  0.265625 0.015625 0  0.2734375 0.015625 0  0.28125 0.015625 0  0.2890625 0.015625 0  0.296875 0.015625 0  0.3046875 0.015625 0  0.3125 0.015625 0  0.3203125 0.015625 0  0.328125 0.015625 0  0.3359375 0.015625 0  0.34375 0.015625 0  0.3515625 0.015625 0  0.359375 0.015625 0  0.3671875 0.015625 0  0.375 0.015625 0  0.3828125 0.015625 0  0.390625 0.015625 0  0.3984375 0.015625 0  0.40625 0.015625 0  0.4140625 0.015625 0  0.421875 0.015625 0  0.4296875 0.015625 0  0.4375 0.015625 0  0.4453125 0.015625 0  0.453125 0.015625 0  0.4609375 0.015625 0  0.46875 0.015625 0  0.4765625 0.015625 0  0.484375 0.015625 0  0.4921875 0.015625 0  0.5 0.015625 0  0.5078125 0.015625 0  0.515625 0.015625 0  0.5234375 0.015625 0  0.53125 0.015625 0  0.5390625 0.015625 0  0.546875 0.015625 0  0.5546875 0.015625 0  0.5625 0.015625 0  0.5703125 0.015625 0  0.578125 0.015625 0  0.5859375 0.015625 0  0.59375 0.015625 0  0.6015625 0.015625 0  0.609375 0.015625 0  0.6171875 0.015625 0  0.625 0.015625 0  0.6328125 0.015625 0  0.640625 0.015625 0  0.6484375 0.015625 0  0.65625 0.015625 0  0.6640625 0.015625 0  0.671875 0.015625 0  0.6796875 0.015625 0  0.6875 0.015625 0  0.6953125 0.015625 0  0.703125 0.015625 0  0.7109375 0.015625 0  0.71875 0.015625 0  0.7265625 0.015625 0  0.734375 0.015625 0  0.7421875 0.015625 0  0.75 0.015625 0  0.7578125 0.015625 0  0.765625 0.015625 0  0.7734375 0.015625 0  0.78125 0.015625 0  0.7890625 0.015625 0  0.796875 0.015625 0  0.8046875 0.015625 0  0.8125 0.015625 0  0.8203125 0.015625 0  0.828125 0.015625 0  0.8359375 0.015625 0  0.84375 0.015625 0  0.8515625 0.015625 0  0.859375 0.015625 0  0.8671875 0.015625 0  0.875 0.015625 0  0.8828125 0.015625 0  0.890625 0.015625 0  0.8984375 0.015625 0  0.90625 0.015625 0  0.9140625 0.015625 0  0.921875 0.015625 0  0.9296875 0.015625 0  0.9375 0.015625 0  0.9453125 0.015625 0  0.953125 0.015625 0  0.9609375 0.015625 0  0.96875 0.015625 0  0.9765625 0.015625 0  0.984375 0.015625 0  0.9921875 0.015625 0  1 0.015625 0  0 0.0234375 0  0.0078125 0.0234375 0  0.015625 0.0234375 0  0.0234375 0.0234375 0  0.03125 0.0234375 0  0.0390625 0.0234375 0  0.046875 0.0234375 0  0.0546875 0.0234375 0  0.0625 0.0234375 0  0.0703125 0.0234375 0  0.078125 0.0234375 0  0.0859375 0.0234375 0  0.09375 0.0234375 0  0.1015625 0.0234375 0  0.109375 0.0234375 0  0.1171875 0.0234375 0  0.125 0.0234375 0  0.1328125 0.0234375 0  0.140625 0.0234375 0  0.1484375 0.0234375 0  0.15625 0.0234375 0  0.1640625 0.0234375 0  0.171875 0.0234375 0  0.1796875 0.0234375 0  0.1875 0.0234375 0  0.1953125 0.0234375 0  0.203125 0.0234375 0  0.2109375 0.0234375 0  0.21875 0.0234375 0  0.2265625 0.0234375 0  0.234375 0.0234375 0  0.2421875 0.0234375 0  0.25 0.0234375 0  0.2578125 0.0234375 0  0.265625 0.0234375 0  0.2734375 0.0234375 0  0.28125 0.0234375 0  0.2890625 0.0234375 0  0.296875 0.0234375 0  0.3046875 0.0234375 0  0.3125 0.0234375 0  0.3203125 0.0234375 0  0.328125 0.0234375 0  0.3359375 0.0234375 0  0.34375 0.0234375 0  0.3515625 0.0234375 0  0.359375 0.0234375 0  0.3671875 0.0234375 0  0.375 0.0234375 0  0.3828125 0.0234375 0  0.390625 0.0234375 0  0.3984375 0.0234375 0  0.40625 0.0234375 0  0.4140625 0.0234375 0  0.421875 0.0234375 0  0.4296875 0.0234375 0  0.4375 0.0234375 0  0.4453125 0.0234375 0  0.453125 0.0234375 0  0.4609375 0.0234375 0  0.46875 0.0234375 0  0.4765625 0.0234375 0  0.484375 0.0234375 0  0.4921875 0.0234375 0  0.5 0.0234375 0  0.5078125 0.0234375 0  0.515625 0.0234375 0  0.5234375 0.0234375 0  0.53125 0.0234375 0  0.5390625 0.0234375 0  0.546875 0.0234375 0  0.5546875 0.0234375 0  0.5625 0.0234375 0  0.5703125 0.0234375 0  0.578125 0.0234375 0  0.5859375 0.0234375 0  0.59375 0.0234375 0  0.6015625 0.0234375 0  0.609375 0.0234375 0  0.6171875 0.0234375 0  0.625 0.0234375 0  0.6328125 0.0234375 0  0.640625 0.0234375 0  0.6484375 0.0234375 0  0.65625 0.0234375 0  0.6640625 0.0234375 0  0.671875 0.0234375 0  0.6796875 0.0234375 0  0.6875 0.0234375 0  0.6953125 0.0234375 0  0.703125 0.0234375 0  0.7109375 0.0234375 0  0.71875 0.0234375 0  0.7265625 0.0234375 0  0.734375 0.0234375 0  0.7421875 0.0234375 0  0.75 0.0234375 0  0.7578125 0.0234375 0  0.765625 0.0234375 0  0.7734375 0.0234375 0  0.78125 0.0234375 0  0.7890625 0.0234375 0  0.796875 0.0234375 0  0.8046875 0.0234375 0  0.8125 0.0234375 0  0.8203125 0.0234375 0  0.828125 0.0234375 0  0.8359375 0.0234375 0  0.84375 0.0234375 0  0.8515625 0.0234375 0  0.859375 0.0234375 0  0.8671
[...]
<CellData  Scalars="f_65275"> 
<DataArray  type="Float64"  Name="f_65275"  format="ascii">4.3606259657370781e-14   4.3606259657367916e-14   9.5810082894204004e-15   1.5963830189522798e-14   8.9360427728245814e-15   9.8468581639381178e-15   9.2993453207936919e-15   9.4578177587267642e-15   9.6256563719273136e-15   9.6648099555316822e-15   9.8715043902248667e-15   9.9178216550205644e-15   1.0057785804482042e-14   1.0130805845343274e-14   1.0200837937685260e-14   1.0298874045906096e-14   1.0310838833654727e-14   1.0429068774255551e-14   1.0394108123675056e-14   1.0528120576017413e-14   1.0454684233000931e-14   1.0600982961014997e-14   1.0495240362095269e-14   1.0651137045385469e-14   1.0517612690864146e-14   1.0681036175011693e-14   1.0523111805021935e-14   1.0692444092260845e-14   1.0512711716550021e-14   1.0686664993508330e-14   1.0487167959775033e-14   1.0664696136481861e-14   1.0447093426713069e-14   1.0627329241432171e-14   1.0393008253452323e-14   1.0575218499610306e-14   1.0325373361083174e-14   1.0508926851696258e-14   1.0244613438383159e-14   1.0428957862604820e-14   1.0151132924376653e-14   1.0335777990533448e-14   1.0045327229892075e-14   1.0229832288306146e-14   9.9275907281092313e-15   1.0111555592498389e-14   9.7983224048394082e-15   9.9813805108070485e-15   9.6579298881290731e-15   9.8397431308702140e-15   9.5068322260274916e-15   9.6870870945742635e-15   9.3454618108896370e-15   9.5238664270459570e-15   9.1742655979510780e-15   9.3505474851054874e-15   8.9937058225891913e-15   9.1676101978161236e-15   8.8042602948095863e-15   8.9755487695253991e-15   8.6064223932027495e-15   8.7748719938831143e-15   8.4007007818085055e-15   8.5661032003521881e-15   8.1876189473198030e-15   8.3497799816345440e-15   7.9677145516230413e-15   8.1264536644333307e-15   7.7415386090970850e-15   7.8966886566338828e-15   7.5096546276406038e-15   7.6610615943466035e-15   7.2726375777583936e-15   7.4201604173750348e-15   7.0310728001933289e-15   7.1745833154903040e-15   6.7855548532542839e-15   6.9249376155026224e-15   6.5366862934955705e-15   6.6718385711223458e-15   6.2850764185921071e-15   6.4159081169566860e-15   6.0313399260348600e-15   6.1577735467080614e-15   5.7760955941443014e-15   5.8980662046965551e-15   5.5199649021599625e-15   5.6374200728154398e-15   5.2635706334472957e-15   5.3764703916823858e-15   5.0075354597825735e-15   5.1158522314018193e-15   4.7524805351235066e-15   4.8561990519366090e-15   4.4990240472293291e-15   4.5981412771566763e-15   4.2477798112148637e-15   4.3423048423938997e-15   3.9993558293863588e-15   4.0893097420971301e-15   3.7543528888984814e-15   3.8397686233844767e-15   3.5133631441824496e-15   3.5942853302949310e-15   3.2769687517113634e-15   3.3534535233126540e-15   3.0457404691801428e-15   3.1178552645008355e-15   2.8202363515649089e-15   2.8880596943449361e-15   2.6010004093854728e-15   2.6646216515440733e-15   2.3885613372472699e-15   2.4480804004183878e-15   2.1834312663777963e-15   2.2389583432496623e-15   1.9861045503219578e-15   2.0377598058177839e-15   1.7970565923612968e-15   1.8449698230290422e-15   1.6167427347396171e-15   1.6610530236783498e-15   1.4455971641303514e-15   1.4864525129861650e-15   1.2840318995575442e-15   1.3215888256678456e-15   1.1324358026354532e-15   1.1668589482618325e-15   9.9117367974076297e-16   1.0226353629924782e-15   8.6058539036630380e-16   8.8926517884814754e-16   7.4098507386131985e-16   7.6706931357350133e-16   6.3266038272781952e-16   6.5634172496538480e-16   5.3587183286654120e-16   5.5734873626480071e-16   4.5085216705707592e-16   4.7032839632904286e-16   3.7780582169404767e-16   3.9548992522715388e-16   3.1690845308661900e-16   3.3301322817105111e-16   2.6830652296315335e-16   2.8304847560298266e-16   2.3211696662964076e-16   2.4571575601438628e-16   2.0842692911528355e-16   2.2110479919475794e-16   1.9729356972247979e-16   2.0927478048872955e-16   1.9874394746861108e-16   2.1025418958981106e-16   2.1277497083440465e-16   2.2404077653089655e-16   2.3935342857239177e-16   2.5060157737166631e-16   2.7841609000289247e-16   2.8987300412153314e-16   3.2986988203206979e-16   3.4176101852891411e-16   3.9359213679280933e-16   4.0614137253319081e-16   4.6943091418404956e-16   4.8285992667259834e-16   5.5720539814189738e-16   5.7173303905741768e-16   6.5670636281448437e-16   6.7254802478441794e-16   7.6769671060058163e-16   7.8506368915280678e-16   8.8991208419558031e-16   9.0901092643374561e-16   1.0230615447332637e-15   1.0440933895568433e-15   1.1668283218583575e-15   1.1899882244287663e-15   1.3208706263587914e-15   1.3463468685338011e-15   1.4848225404929056e-15   1.5127959127741777e-15   1.6582949679532133e-15   1.6889380242364978e-15   1.8408766480760241e-15   1.8743529218269483e-15   2.0321352437072100e-15   2.0685984163177941e-15   2.2316184902524434e-15   2.2712114893882693e-15   2.4388554205754078e-15   2.4817094330200380e-15   2.6533576384655739e-15   2.6995910243577702e-15   2.8746206966661563e-15   2.9243377581925348e-15   3.1021255232925581e-15   3.1554150752664796e-15   3.3353399534243279e-15   3.3922736794117223e-15   3.5737203476102176e-15   3.6343508120678240e-15   3.8167133265086324e-15   3.8810715920109369e-15   4.0637576398046749e-15   4.1318503175975977e-15   4.3142862118829976e-15   4.3860917740901593e-15   4.5677283975810157e-15   4.6431924927031399e-15   4.8235125416654499e-15   4.9025419524615377e-15   5.0810689264951136e-15   5.1635236511582459e-15   5.3398332896547827e-15   5.4255160339801146e-15   5.5992511450189400e-15   5.6878931400726387e-15   5.8587832988661690e-15   5.9500248735510356e-15   6.1179131600908384e-15   6.2112766896261091e-15   6.3761568601634208e-15   6.4710084290670273e-15   6.6330778116436600e-15   6.7285718451030703e-15   6.8883086365595949e-15   6.9833062342007058e-15   7.1415855607830661e-15   7.2345312273012258e-15   7.3928049272122070e-15   7.4815356184026731e-15   7.6421203848755071e-15   7.7235609789698047e-15   7.8901187845253471e-15   7.9597802699023849e-15   8.1381556275187103e-15   8.1892781437216927e-15   8.3890304272903374e-15   8.4110653220646443e-15   8.6484117229646609e-15   8.6242550642165068e-15   8.9279043524431635e-15   8.8288948334432647e-15   9.2511954837544408e-15   9.0294037636090312e-15   9.6611725050488758e-15   9.2486450923298449e-15   1.0184846247056762e-14   9.5856597122574648e-15   1.0484797140435294e-14   1.0428036319320470e-14   1.1361249782154501e-14   1.2615060114497039e-14   5.6763366483920505e-13   2.4535502249938247e-14   1.5963830189637404e-14   9.5810082894232813e-15   1.1370293940382592e-14   1.1370293940571611e-14   1.0310828542487611e-14   1.1700250393548207e-14   1.0177501303597184e-14   1.1018613578397253e-14   1.0234554696960730e-14   1.0594330257652235e-14   1.0345092243867394e-14   1.0487568389566346e-14   1.0456986008823217e-14   1.0509681292667631e-14   1.0554497946854366e-14   1.0571525085093101e-14   1.0633717414231293e-14   1.0638382469398860e-14   1.0694293713168188e-14   1.0696954184228408e-14   1.0736856142960459e-14   1.0742175270163526e-14   1.0762217869817220e-14   1.0772242487969566e-14   1.0771144507654052e-14   1.0786680138640157e-14   1.0764303536486700e-14   1.0785556440041855e-14   1.0742269617143473e-14   1.0769156927077958e-14   1.0705544209578867e-14   1.0737847329186839e-14   1.0654576123648589e-14   1.0692017524966761e-14   1.0589779030649999e-14   1.0632060630024874e-14   1.0511545394974587e-14   1.0558367328983707e-14   1.0420257155503885e-14   1.0471326408606474e-14   1.0316293795981122e-14   1.0371327637966097e-14   1.0200038358213690e-14   1.0258765131628077e-14   1.0071881840159219e-14   1.0134040498908314e-14   9.9322264489042816e-15   9.9975655376549071e-15   9.7814878659974041e-15   9.8497643096861865e-15   9.6200967835395156e-15   9.6910747291545618e-15   9.4484999329674963e-15   9.5219496578340634e-15   9.2671605732040071e-15   9.3428575822236894e-15   9.0765587271992317e-15   9.1542829775859022e-15   8.8771910526341107e-15   8.9567263216661608e-15   8.6695705110676689e-15   8.7507039084876228e-15   8.4542258204407359e-15   8.5367474451731110e-15   8.2317008068105201e-15   8.3154034586252872e-15   8.0025535341237704e-15   8.0872325600554804e-15   7.7673553949425205e-15   7.8528085896077990e-15   7.5266900585328891e-15   7.6127176365774670e-15   7.2811523570034889e-15   7.3675569977524460e-15   7.0313471093557530e-15   7.1179340162100157e-15   6.7778878563507324e-15   6.8644648876889107e-15   6.5213955629256577e-15   6.6077733947853477e-15   6.2624973053807295e-15   6.3484895963745862e-15   6.0018248460107037e-15   6.0872484537557501e-15   5.7400132942856984e-15   5.8246884878571223e-15   5.4776996128898041e-15   5.5614503068839233e-15   5.2155212105756805e-15   5.2981752294542105e-15   4.9541144940702315e-15   5.0355038038019017e-15   4.6941133684041039e-15   4.7740743519420106e-15   4.4361477943140505e-15   4.5145215288637772e-15   4.1808423487087813e-15   4.2574748476685185e-15   3.9288147362002479e-15   4.0035572035090131e-15   3.6806743456240638e-15   3.7533834600291102e-15   3.4370208477030254e-15   3.5075590157180582e-15   3.1984427739144338e-15   3.2666783620295935e-15   2.9655161386883985e-15   3.0313237201075034e-15   2.7388030615285731e-15   2.8020636432950236e-15   2.5188504683103631e-15   2.5794517231810869e-15   2.3061887972208146e-15   2.3640252585380230e-15   2.1013307114629540e-15   2.1563039751797444e-15   1.9047699455797149e-15   1.9567888553248910e-15   1.7169800789987877e-15   1.7659608884003339e-15   1.5384134643067323e-15   1.5842799801587811e-15   1.3695001063268270e-15   1.4121838444578462e-15   1.2106466988074378e-15   1.2500869927839094e-15   1.0622356247078243e-15   1.0983797170139370e-15   9.2462406060292056e-16   9.5742720292543680e-16   7.9814314722498496e-16   8.2756864789482528e-16   6.8309718426547683e-16   7.0911646000873991e-16   5.7976292811381104e-16   6.0235553757640582e-16   4.8838894993838812e-16   5.0754257845264646e-16   4.0919503102496676e-16   4.2490548056616381e-16   3.4237166161150397e-16   3.5464281436726247e-16   2.8807959807333051e-16   2.9692335529982881e-16   2.4644949137814714e-16   2.5188568600047908e-16   2.1758158705299112e-16   2.1963787553393922e-16   2.0154549940436844e-16   2.0025723721552737e-16   1.9838006629730416e-16   1.9379014920864493e-16   2.0809327062160849e-16   2.0025195680822272e-16   2.3066223847959187e-16   2.1962694568102129e-16   2.6603331760961903e-16   2.5186839018166592e-16   3.1412222431901879e-16   2.9689867920686884e-16   3.7481427126067002e-16   3.5460950951618702e-16   4.4796466317928313e-16   4.2486215709357809e-16   5.3339887433592265e-16   5.0748782007424896e-16   6.3091309243840383e-16   6.0228803170242123e-16   7.4027473857463359e-16   7.0903514378382139e-16   8.6122305646501948e-16   8.2747288031324798e-16   9.9346977793698732e-16   9.5731695637381142e-16   1.1366998478329708e-15   1.0982557592743876e-15   1.2905722224802118e-15   1.2499510980340629e-15   1.4547207389988136e-15   1.4120390066916623e-15   1.6287550324394180e-15   1.5841306053853499e-15   1.8122615442162329e-15   1.7658130188372686e-15   2.0048045567950310e-15   1.9566503289183860e-15   2.2059273185026229e-15   2.1561845941726062e-15   2.4151532124634229e-15   2.3639368789223025e-15   2.6319869792230124e-15   2.5794083324118359e-15   2.8559159965410560e-15   2.8020812787699061e-15   3.0864116217005696e-15   3.0314203256676956e-15   3.3229305635748420e-15   3.2668734530320365e-15   3.5649163193292428e-15   3.5078730984461954e-15   3.8118006616168533e-15   3.7538371835072645e-15   4.0630051437498493e-15   4.0041700734612342e-15   4.3179426839547826e-15   4.2582634089088485e-15   4.5760191463843475e-15   4.5154967742813847e-15   4.8366349729019918e-15   4.7752381033981432e-15   5.0991868130051709e-15   5.0368437310304844e-15   5.3630691442102973e-15   5.2996579131874621e-15   5.6276758339073574e-15   5.5630116119815462e-15   5.8924015403344792e-15   5.8262201705731297e-15   6.1566428445829309e-15   6.0885794394698966e-15   6.4197987980289270e-15   6.3493595282283702e-15   6.6812703794552858e-15   6.6077951040267002e-15   6.9404578902026477e-15   6.8630703868917757e-15   7.1967543016168943e-15   7.1142960532930403e-15   7.4495305371096753e-15   7.3604735281757430e-15   7.6981041678700695e-15   7.6004394110144248e-15   7.9416723323492774e-15   7.8327781750285321e-15   8.1791635514495874e-15   8.0556839339706888e-15   8.4088938910868225e-15   8.2667402758583089e-15   8.6277183724602276e-15   8.4625698737301657e-15   8.8287895875958554e-15   8.6382811419640288e-15   8.9952632905595315e-15   8.7865917376230417e-15   9.0821032040950819e-15   8.8962493272949347e-15   8.9673424218005851e-15   8.9473973617879429e-15   8.3840214916515101e-15   8.8893382598351562e-15   7.5227714268869958e-15   8.5538923850413310e-15   1.2956358687349888e-14   7.9789167159149269e-15   1.1511271539879315e-14   1.2801805657206424e-14   9.8468581641090703e-15   8.9360427726633651e-15   1.1700250393349692e-14   1.0310828542526109e-14   1.1026726829374525e-14   1.1026726829455133e-14   1.0732481566766399e-14   1.1233679217109850e-14   1.0646939237683211e-14   1.1095504442531099e-14   1.0651129820922067e-14   1.0949166196285407e-14   1.0691252409333166e-14   1.0876058601258105e-14   1.0740959620608470e-14   1.0856662832415702e-14   1.0787403707360526e-14   1.0863607998146067e-14   1.0824462431804934e-14   1.0878936982272082e-14   1.0849275342380669e-14   1.0892450959406911e-14   1.0860558499258876e-14   1.0898572538508948e-14   1.0857798977839517e-14   1.0894289743125307e-14   1.0840868332291459e-14   1.0878002786772294e-14   1.0809834899703702e-14   1.0848899123391269e-14   1.0764871667653087e-14   1.0806614811445631e-14   1.0706210820817888e-14   1.0751048969897385e-14   1.0634121448332281e-14   1.0682260635679126e-14   1.0548898868092269e-14   1.0600410599590351e-14   1.0450859747231597e-14   1.0505728121524483e-14   1.0340340122023709e-14   1.0398491679345893e-14   1.0217694771050745e-14   1.0279017660152656e-14   1.0083297182698468e-14   1.0147653615405405e-14   9.9375397188217994e-15   1.0004774184111397e-14   9.7808337448810028e-15   9.8507784634551467e-15   9.6136096976941719e-15   9.6860883149925775e-15   9.4363169609224159e-15   9.5111470568181284e-15   9.2494236289113038e-15   9.3264184765200798e-15   9.0534160703158901e-15   9.1323858958949343e-15   8.8487984242590963e-15   8.9295513077218990e-15   8.6360918752721467e-15   8.7184344334093487e-15   8.4158338832765647e-15   8.4995718341249062e-15   8.1885772803380789e-15   8.2735158783742700e-15   7.9548892637033899e-15   8.0408337075085937e-15   7.7153503478817398e-15   7.8021061199513494e-15   7.4705532087225408e-15   7.5579263948416109e-15   7.2211014542643772e-15   7.3088990795538931e-15   6.9676083930388594e-15   7.0556387239012160e-15   6.7106956909916628e-15   6.7987685435214578e-15   6.4509920445711128e-15   6.5389191017495274e-15   6.1891317779011663e-15   6.2767268920880165e-15   5.9257534299400259e-15   6.0128329305407419e-15   5.6614983085151284e-15   5.7478813331709443e-15   5.3970090543580012e-15   5.4825178400091944e-15   5.1329281394682359e-15   5.2173883497331998e-15   4.8698964130957414e-15   4.9531374442479540e-15   4.6085516039098416e-15   4.6904069016608861e-15   4.3495268458912883e-15   4.4298342170081082e-15   4.0934492140934849e-15   4.1720511127662301e-15   3.8409382442806377e-15   3.9176820724126386e-15   3.5926044673888562e-15   3.6673428868862702e-15   3.3490480274262192e-15   3.4216392154220330e-15   3.1108572021749309e-15   3.1811651488658224e-15   2.8786070899196330e-15   2.9465018393173609e-15   2.6528581825650935e-15   2.7182161040821419e-15   2.4341550961592273e-15   2.4968591154092219e-15   2.2230252595077120e-15   2.2829650864730374e-15   2.0199776647504251e-15   2.0770500179750624e-15   1.8255016778092089e-15   1.8796104678551887e-15   1.6400658687654420e-15   1.6911223939035945e-15   1.4641168977358152e-15   1.5120400154827470e-15   1.2980784788713419e-15   1.3427947468217741e-15   1.1423503529321493e-15   1.1837941646151588e-15   9.9730735860569773e-16   1.0354210641815599e-15   8.6329853258198741e-16   8.9803253022571288e-16   7.4064630179877295e-16   7.7195910975526437e-16   6.2964569845872531e-16   6.5750402629225671e-16   5.3056368676525763e-16   5.5494245849739880e-16   4.4363852196836964e-16   4.6452089574957380e-16   3.6907919764218894e-16   3.8645655797975611e-16   3.0706494663082413e-16   3.2093687641433069e-16   2.5774483506495652e-16   2.6811906711923422e-16   2.2123740935246759e-16   2.2812975233688103e-16   1.9763042996501147e-16   2.0106466702950778e-16   1.8698066954512994e-16   1.8698844275244835e-16   1.8931379345575628e-16   1.8593445530647984e-16   2.0462431001469322e-16   1.9790475465378493e-16   2.3287560009551336e-16   2.2287006703225454e-16   2.7400001532744641e-16   2.6076986873216900e-16   3.2789906068328478e-16   3.1151253911654924e-16   3.9444364132966799e-16   3.7497558144433533e-16   4.7347438921622723e-16   4.5100591935599087e-16   5.6480206128723882e-16   5.3942026415809495e-16   6.6820800631014002e-16   6.4000555057581899e-16   7.8344470727431006e-16   7.5251944476506662e-16   9.1023638697601732e-16   8.7669091150293768e-16   1.0482796846598530e-15   1.0122208514600002e-15   1.1972443946398756e-15   1.1587827984739643e-15   1.3567742684264769e-15   1.3160236720332164e-15   1.5264878753613323e-15   1.4835645855577761e-15   1.7059795242425680e-15   1.6610017056605707e-15   1.8948202269501733e-15   1.8479071506706389e-15   2.0925587221320832e-15   2.0438299362815999e-15   2.2987225341457961e-15   2.2482969378638795e-15   2.5128190750316848e-15   2.4608138933166500e-15   2.7343367580205874e-15   2.6808663923115395e-15   2.9627461640602578e-15   2.9079208848438426e-15   3.1975011694277644e-15   3.1414256475335604e-15   3.4380401084115707e-15   3.3808117247813702e-15   3.6837868694486837e-15   3.6254937762377005e-15   3.9341519541348198e-15   3.8748708269836614e-15   4.1885334162950710e-15   4.1283268419268751e-15   4.4463176679352517e-15   4.3852310733435233e-15   4.7068799993859819e-15   4.6449380696534120e-15   4.9695848036582262e-15   4.9067872396190448e-15   5.2337851943319542e-15   5.1701017391249787e-15   5.4988218703197681e-15   5.4341864880612133e-15   5.7640207187721325e-15   5.6983248729471447e-15   6.0286885783154783e-15   5.9617736372482717e-15   6.2921060589352937e-15   6.2237551350673270e-15   6.5535157570820879e-15   6.4834457582564644e-15   6.8121029503325852e-15   6.7399587394893737e-15   7.0669638757302825e-15   6.9923185465307722e-15   7.3170527800647508e-15   7.2394226004271831e-15   7.5610917607598739e-15   7.4799835576995868e-15   7.7974131606703938e-15   7.7124414060117955e-15   8.0236755379287158e-15   7.9348279757154290e-15   8.2363343405167515e-15   8.1445553093893562e-15   8.4296217225643000e-15   8.3380800502297534e-15   8.5935258810543100e-15   8.5103610626441619e-15   8.7097612091761282e-15   8.6539591765781897e-15   8.7441217260377349e-15   8.7574861697170657e-15   8.6350308913740758e-15   8.8028808459649463e-15   8.2938025155354184e-15   8.7616079512143484e-15   7.7027800606013795e-15   8.6011761008314710e-15   7.2693333983848281e-15   8.3927466970421490e-15   7.7038345211700830e-15   8.8059605669902550e-15   1.0891528220008497e-14   1.0948611635274708e-14   9.4578177588814551e-15   9.2993453208351812e-15   1.1018613578182804e-14   1.0177501303595998e-14   1.1233679217243135e-14   1.0732481566305555e-14   1.1085128969238181e-14   1.1085128969325999e-14   1.0976919227188639e-14   1.1192649602617340e-14   1.0929497954788106e-14   1.1169144292385196e-14   1.0920028559142876e-14   1.1118802573745619e-14   1.0929108866467435e-14   1.1080338716588212e-14   1.0943827778779499e-14   1.1057369204516575e-14   1.0956221294219609e-14   1.1043438264347342e-14   1.0961547993380964e-14   1.1031527073335827e-14   1.0957039667531837e-14   1.1016310733682305e-14   1.0941108933963877e-14   1.0994180030258095e-14   1.0912874322684596e-14   1.0962808161395278e-14   1.08718818