<?xml version="1.0"?>
<VTKFile type="UnstructuredGrid"  version="0.1"  >
<UnstructuredGrid>
<Piece  NumberOfPoints="16641" NumberOfCells="32768">
<Points>
<DataArray  type="Float64"  NumberOfComponents="3"  format="ascii">0 0 0  0.0078125 0 0  0.015625 0 0  0.0234375 0 0  0.03125 0 0  0.0390625 0 0  0.046875 0 0  0.0546875 0 0  0.0625 0 0  0.0703125 0 0  0.078125 0 0  0.0859375 0 0  0.09375 0 0  0.1015625 0 0  0.109375 0 0  0.1171875 0 0  0.125 0 0  0.1328125 0 0  0.140625 0 0  0.1484375 0 0  0.15625 0 0  0.1640625 0 0  0.171875 0 0  0.1796875 0 0  0.1875 0 0  0.1953125 0 0  0.203125 0 0  0.2109375 0 0  0.21875 0 0  0.2265625 0 0  0.234375 0 0  0.2421875 0 0  0.25 0 0  0.2578125 0 0  0.265625 0 0  0.2734375 0 0  0.28125 0 0  0.2890625 0 0  0.296875 0 0  0.3046875 0 0  0.3125 0 0  0.3203125 0 0  0.328125 0 0  0.3359375 0 0  0.34375 0 0  0.3515625 0 0  0.359375 0 0  0.3671875 0 0  0.375 0 0  0.3828125 0 0  0.390625 0 0  0.3984375 0 0  0.40625 0 0  0.4140625 0 0  0.421875 0 0  0.4296875 0 0  0.4375 0 0  0.4453125 0 0  0.453125 0 0  0.4609375 0 0  0.46875 0 0  0.4765625 0 0  0.484375 0 0  0.4921875 0 0  0.5 0 0  0.5078125 0 0  0.515625 0 0  0.5234375 0 0  0.53125 0 0  0.5390625 0 0  0.546875 0 0  0.5546875 0 0  0.5625 0 0  0.5703125 0 0  0.578125 0 0  0.5859375 0 0  0.59375 0 0  0.6015625 0 0  0.609375 0 0  0.6171875 0 0  0.625 0 0  0.6328125 0 0  0.640625 0 0  0.6484375 0 0  0.65625 0 0  0.6640625 0 0  0.671875 0 0  0.6796875 0 0  0.6875 0 0  0.6953125 0 0  0.703125 0 0  0.7109375 0 0  0.71875 0 0  0.7265625 0 0  0.734375 0 0  0.7421875 0 0  0.75 0 0  0.7578125 0 0  0.765625 0 0  0.7734375 0 0  0.78125 0 0  0.7890625 0 0  0.796875 0 0  0.8046875 0 0  0.8125 0 0  0.8203125 0 0  0.828125 0 0  0.8359375 0 0  0.84375 0 0  0.8515625 0 0  0.859375 0 0  0.8671875 0 0  0.875 0 0  0.8828125 0 0  0.890625 0 0  0.8984375 0 0  0.90625 0 0  0.9140625 0 0  0.921875 0 0  0.9296875 0 0  0.9375 0 0  0.9453125 0 0  0.953125 0 0  0.9609375 0 0  0.96875 0 0  0.9765625 0 0  0.984375 0 0  0.9921875 0 0  1 0 0  0 0.0078125 0  0.0078125 0.0078125 0  0.015625 0.0078125 0  0.0234375 0.0078125 0  0.03125 0.0078125 0  0.0390625 0.0078125 0  0.046875 0.0078125 0  0.0546875 0.0078125 0  0.0625 0.0078125 0  0.0703125 0.0078125 0  0.078125 0.0078125 0  0.0859375 0.0078125 0  0.09375 0.0078125 0  0.1015625 0.0078125 0  0.109375 0.0078125 0  0.1171875 0.0078125 0  0.125 0.0078125 0  0.1328125 0.0078125 0  0.140625 0.0078125 0  0.1484375 0.0078125 0  0.15625 0.0078125 0  0.1640625 0.0078125 0  0.171875 0.0078125 0  0.1796875 0.0078125 0  0.1875 0.0078125 0  0.1953125 0.0078125 0  0.203125 0.0078125 0  0.2109375 0.0078125 0  0.21875 0.0078125 0  0.2265625 0.0078125 0  0.234375 0.0078125 0  0.2421875 0.0078125 0  0.25 0.0078125 0  0.2578125 0.0078125 0  0.265625 0.0078125 0  0.2734375 0.0078125 0  0.28125 0.0078125 0  0.2890625 0.0078125 0  0.296875 0.0078125 0  0.3046875 0.0078125 0  0.3125 0.0078125 0  0.3203125 0.0078125 0  0.328125 0.0078125 0  0.3359375 0.0078125 0  0.34375 0.0078125 0  0.3515625 0.0078125 0  0.359375 0.0078125 0  0.3671875 0.0078125 0  0.375 0.0078125 0  0.3828125 0.0078125 0  0.390625 0.0078125 0  0.3984375 0.0078125 0  0.40625 0.0078125 0  0.4140625 0.0078125 0  0.421875 0.0078125 0  0.4296875 0.0078125 0  0.4375 0.0078125 0  0.4453125 0.0078125 0  0.453125 0.0078125 0  0.4609375 0.0078125 0  0.46875 0.0078125 0  0.4765625 0.0078125 0  0.484375 0.0078125 0  0.4921875 0.0078125 0  0.5 0.0078125 0  0.5078125 0.0078125 0  0.515625 0.0078125 0  0.5234375 0.0078125 0  0.53125 0.0078125 0  0.5390625 0.0078125 0  0.546875 0.0078125 0  0.5546875 0.0078125 0  0.5625 0.0078125 0  0.5703125 0.0078125 0  0.578125 0.0078125 0  0.5859375 0.0078125 0  0.59375 0.0078125 0  0.6015625 0.0078125 0  0.609375 0.0078125 0  0.6171875 0.0078125 0  0.625 0.0078125 0  0.6328125 0.0078125 0  0.640625 0.0078125 0  0.6484375 0.0078125 0  0.65625 0.0078125 0  0.6640625 0.0078125 0  0.671875 0.0078125 0  0.6796875 0.0078125 0  0.6875 0.0078125 0  0.6953125 0.0078125 0  0.703125 0.0078125 0  0.7109375 0.0078125 0  0.71875 0.0078125 0  0.7265625 0.0078125 0  0.734375 0.0078125 0  0.7421875 0.0078125 0  0.75 0.0078125 0  0.7578125 0.0078125 0  0.765625 0.0078125 0  0.7734375 0.0078125 0  0.78125 0.0078125 0  0.7890625 0.0078125 0  0.796875 0.0078125 0  0.8046875 0.0078125 0  0.8125 0.0078125 0  0.8203125 0.0078125 0  0.828125 0.0078125 0  0.8359375 0.0078125 0  0.84375 0.0078125 0  0.8515625 0.0078125 0  0.859375 0.0078125 0  0.8671875 0.0078125 0  0.875 0.0078125 0  0.8828125 0.0078125 0  0.890625 0.0078125 0  0.8984375 0.0078125 0  0.90625 0.0078125 0  0.9140625 0.0078125 0  0.921875 0.0078125 0  0.9296875 0.0078125 0  0.9375 0.0078125 0  0.9453125 0.0078125 0  0.953125 0.0078125 0  0.9609375 0.0078125 0  0.96875 0.0078125 0  0.9765625 0.0078125 0  0.984375 0.0078125 0  0.9921875 0.0078125 0  1 0.0078125 0  0 0.015625 0  0.0078125 0.015625 0  0.015625 0.015625 0  0.0234375 0.015625 0  0.03125 0.015625 0  0.0390625 0.015625 0  0.046875 0.015625 0  0.0546875 0.015625 0  0.0625 0.015625 0  0.0703125 0.015625 0  0.078125 0.015625 0  0.0859375 0.015625 0  0.09375 0.015625 0  0.1015625 0.015625 0  0.109375 0.015625 0  0.1171875 0.015625 0  0.125 0.015625 0  0.1328125 0.015625 0  0.140625 0.015625 0  0.1484375 0.015625 0  0.15625 0.015625 0  0.1640625 0.015625 0  0.171875 0.015625 0  0.1796875 0.015625 0  0.1875 0.015625 0  0.1953125 0.015625 0  0.203125 0.015625 0  0.2109375 0.015625 0  0.21875 0.015625 0  0.2265625 0.015625 0  0.234375 0.015625 0  0.2421875 0.015625 0  0.25 0.015625 0  0.2578125 0.015625 0  0.265625 0.015625 0  0.2734375 0.015625 0  0.28125 0.015625 0  0.2890625 0.015625 0  0.296875 0.015625 0  0.3046875 0.015625 0  0.3125 0.015625 0  0.3203125 0.015625 0  0.328125 0.015625 0  0.3359375 0.015625 0  0.34375 0.015625 0  0.3515625 0.015625 0  0.359375 0.015625 0  0.3671875 0.015625 0  0.375 0.015625 0  0.3828125 0.015625 0  0.390625 0.015625 0  0.3984375 0.015625 0  0.40625 0.015625 0  0.4140625 0.015625 0  0.421875 0.015625 0  0.4296875 0.015625 0  0.4375 0.015625 0  0.4453125 0.015625 0  0.453125 0.015625 0  0.4609375 0.015625 0  0.46875 0.015625 0  0.4765625 0.015625 0  0.484375 0.015625 0  0.4921875 0.015625 0  0.5 0.015625 0  0.5078125 0.015625 0  0.515625 0.015625 0  0.5234375 0.015625 0  0.53125 0.015625 0  0.5390625 0.015625 0  0.546875 0.015625 0  0.5546875 0.015625 0  0.5625 0.015625 0  0.5703125 0.015625 0  0.578125 0.015625 0  0.5859375 0.015625 0  0.59375 0.015625 0  0.6015625 0.015625 0  0.609375 0.015625 0  0.6171875 0.015625 0  0.625 0.015625 0  0.6328125 0.015625 0  0.640625 0.015625 0  0.6484375 0.015625 0  0.65625 0.015625 0  0.6640625 0.015625 0  0.671875 0.015625 0  0.6796875 0.015625 0  0.6875 0.015625 0  0.6953125 0.015625 0  0.703125 0.015625 0  0.7109375 0.015625 0  0.71875 0.015625 0  0.7265625 0.015625 0  0.734375 0.015625 0  0.7421875 0.015625 0  0.75 0.015625 0  0.7578125 0.015625 0  0.765625 0.015625 0  0.7734375 0.015625 0  0.78125 0.015625 0  0.7890625 0.015625 0  0.796875 0.015625 0  0.8046875 0.015625 0  0.8125 0.015625 0  0.8203125 0.015625 0  0.828125 0.015625 0  0.8359375 0.015625 0  0.84375 0.015625 0  0.8515625 0.015625 0  0.859375 0.015625 0  0.8671875 0.015625 0  0.875 0.015625 0  0.8828125 0.015625 0  0.890625 0.015625 0  0.8984375 0.015625 0  0.90625 0.015625 0  0.9140625 0.015625 0  0.921875 0.015625 0  0.9296875 0.015625 0  0.9375 0.015625 0  0.9453125 0.015625 0  0.953125 0.015625 0  0.9609375 0.015625 0  0.96875 0.015625 0  0.9765625 0.015625 0  0.984375 0.015625 0  0.9921875 0.015625 0  1 0.015625 0  0 0.0234375 0  0.0078125 0.0234375 0  0.015625 0.0234375 0  0.0234375 0.0234375 0  0.03125 0.0234375 0  0.0390625 0.0234375 0  0.046875 0.0234375 0  0.0546875 0.0234375 0  0.0625 0.0234375 0  0.0703125 0.0234375 0  0.078125 0.0234375 0  0.0859375 0.0234375 0  0.09375 0.0234375 0  0.1015625 0.0234375 0  0.109375 0.0234375 0  0.1171875 0.0234375 0  0.125 0.0234375 0  0.1328125 0.0234375 0  0.140625 0.0234375 0  0.1484375 0.0234375 0  0.15625 0.0234375 0  0.1640625 0.0234375 0  0.171875 0.0234375 0  0.1796875 0.0234375 0  0.1875 0.0234375 0  0.1953125 0.0234375 0  0.203125 0.0234375 0  0.2109375 0.0234375 0  0.21875 0.0234375 0  0.2265625 0.0234375 0  0.234375 0.0234375 0  0.2421875 0.0234375 0  0.25 0.0234375 0  0.2578125 0.0234375 0  0.265625 0.0234375 0  0.2734375 0.0234375 0  0.28125 0.0234375 0  0.2890625 0.0234375 0  0.296875 0.0234375 0  0.3046875 0.0234375 0  0.3125 0.0234375 0  0.3203125 0.0234375 0  0.328125 0.0234375 0  0.3359375 0.0234375 0  0.34375 0.0234375 0  0.3515625 0.0234375 0  0.359375 0.0234375 0  0.3671875 0.0234375 0  0.375 0.0234375 0  0.3828125 0.0234375 0  0.390625 0.0234375 0  0.3984375 0.0234375 0  0.40625 0.0234375 0  0.4140625 0.0234375 0  0.421875 0.0234375 0  0.4296875 0.0234375 0  0.4375 0.0234375 0  0.4453125 0.0234375 0  0.453125 0.0234375 0  0.4609375 0.0234375 0  0.46875 0.0234375 0  0.4765625 0.0234375 0  0.484375 0.0234375 0  0.4921875 0.0234375 0  0.5 0.0234375 0  0.5078125 0.0234375 0  0.515625 0.0234375 0  0.5234375 0.0234375 0  0.53125 0.0234375 0  0.5390625 0.0234375 0  0.546875 0.0234375 0  0.5546875 0.0234375 0  0.5625 0.0234375 0  0.5703125 0.0234375 0  0.578125 0.0234375 0  0.5859375 0.0234375 0  0.59375 0.0234375 0  0.6015625 0.0234375 0  0.609375 0.0234375 0  0.6171875 0.0234375 0  0.625 0.0234375 0  0.6328125 0.0234375 0  0.640625 0.0234375 0  0.6484375 0.0234375 0  0.65625 0.0234375 0  0.6640625 0.0234375 0  0.671875 0.0234375 0  0.6796875 0.0234375 0  0.6875 0.0234375 0  0.6953125 0.0234375 0  0.703125 0.0234375 0  0.7109375 0.0234375 0  0.71875 0.0234375 0  0.7265625 0.0234375 0  0.734375 0.0234375 0  0.7421875 0.0234375 0  0.75 0.0234375 0  0.7578125 0.0234375 0  0.765625 0.0234375 0  0.7734375 0.0234375 0  0.78125 0.0234375 0  0.7890625 0.0234375 0  0.796875 0.0234375 0  0.8046875 0.0234375 0  0.8125 0.0234375 0  0.8203125 0.0234375 0  0.828125 0.0234375 0  0.8359375 0.0234375 0  0.84375 0.0234375 0  0.8515625 0.0234375 0  0.859375 0.0234375 0  0.8671
[...]
<CellData  Scalars="f_14771"> 
<DataArray  type="Float64"  Name="f_14771"  format="ascii">7.6190034155748792e-13   7.6190034155688410e-13   1.5542412263168208e-13   2.6457999340055251e-13   1.4252022016038733e-13   1.5774039310591389e-13   1.4818862295961191e-13   1.5075599876629376e-13   1.5349166230589126e-13   1.5403758265741289e-13   1.5751310158513069e-13   1.5816208685972972e-13   1.6056437574410026e-13   1.6165092344511696e-13   1.6290809734280135e-13   1.6440807910906014e-13   1.6471084192699048e-13   1.6654564089993248e-13   1.6607687788271805e-13   1.6817379336782837e-13   1.6707313792132082e-13   1.6937433045028287e-13   1.6774404865290784e-13   1.7020497873150960e-13   1.6812017328243261e-13   1.7070651731714718e-13   1.6822333848055554e-13   1.7090829647454689e-13   1.6806975850516905e-13   1.7083202202081259e-13   1.6767199231367437e-13   1.7049427764566197e-13   1.6704020296862182e-13   1.6990820541987834e-13   1.6618298713166531e-13   1.6908463580979059e-13   1.6510793390082766e-13   1.6803285731203750e-13   1.6382200763369676e-13   1.6676114764148827e-13   1.6233181495316543e-13   1.6527714517171917e-13   1.6064379222807510e-13   1.6358811117423833e-13   1.5876433934232313e-13   1.6170111672289170e-13   1.5669991418273871e-13   1.5962317662927941e-13   1.5445710081725053e-13   1.5736134526976804e-13   1.5204265606343798e-13   1.5492278495849772e-13   1.4946354257071788e-13   1.5231481416141375e-13   1.4672694943225530e-13   1.4954494031918499e-13   1.4384030494880844e-13   1.4662088138589023e-13   1.4081128240578666e-13   1.4355057838959209e-13   1.3764780052882584e-13   1.4034220115660213e-13   1.3435801964028728e-13   1.3700414847895641e-13   1.3095033452375254e-13   1.3354504421409895e-13   1.2743336465602197e-13   1.2997372944912959e-13   1.2381594154276355e-13   1.2629925226078107e-13   1.2010709465839708e-13   1.2253085443673609e-13   1.1631603548083679e-13   1.1867795704251454e-13   1.1245214042975260e-13   1.1475014392126412e-13   1.0852493222716629e-13   1.1075714349488703e-13   1.0454406052687615e-13   1.0670881031422424e-13   1.0051928204682155e-13   1.0261510467947839e-13   9.6460439127384227e-14   9.8486071973485519e-14   9.2377438873482078e-14   9.4331821284829596e-14   8.8280230777513147e-14   9.0162503605134306e-14   8.4178784744605309e-14   8.5988289229521674e-14   8.0083068398640434e-14   8.1819345212284827e-14   7.6003024456941586e-14   7.7665812425252279e-14   7.1948547926693284e-14   7.3537782686992914e-14   6.7929463376347662e-14   6.9445275446967284e-14   6.3955502062981924e-14   6.5398214776526122e-14   6.0036279352841021e-14   6.1406406897294170e-14   5.6181272240352158e-14   5.7479516678338486e-14   5.2399797442205271e-14   5.3627045906242622e-14   4.8700988972902175e-14   4.9858310395545842e-14   4.5093777506861498e-14   4.6182418924283419e-14   4.1586868556802941e-14   4.2608251233075657e-14   3.8188722553530484e-14   3.9144437598015939e-14   3.4907534566337224e-14   3.5799338352040465e-14   3.1751215020601783e-14   3.2581024093908189e-14   2.8727371083730531e-14   2.9497257014699548e-14   2.5843288693110513e-14   2.6555472274030557e-14   2.3105915094290413e-14   2.3762760471529558e-14   2.0521842815317347e-14   2.1125851185150555e-14   1.8097293696273075e-14   1.8651096709680875e-14   1.5838104450209939e-14   1.6344457384432494e-14   1.3749712739412492e-14   1.4211487227375882e-14   1.1837144355451770e-14   1.2257321203994183e-14   1.0105001447219309e-14   1.0486662773935822e-14   8.5574516910655301e-15   8.9037730439496098e-15   7.1982183969925805e-15   7.5124606513037880e-15   6.0305719384672158e-15   6.3160729233420790e-15   5.0573220709161913e-15   5.3174879624467238e-15   4.2808114383855614e-15   4.5191080670003735e-15   3.7029101715605176e-15   3.9228540821476189e-15   3.3250117328048510e-15   3.5301611315937368e-15   3.1480297844771541e-15   3.3419752945036053e-15   3.1723963473946917e-15   3.3587516385790139e-15   3.3980610089782264e-15   3.5804533494332518e-15   3.8244914437286162e-15   4.0065520856132281e-15   4.4506750025824262e-15   4.6360294904018037e-15   5.2751215555462729e-15   5.4673799138180388e-15   6.2958674638294590e-15   6.4986143352326226e-15   7.5104807608149371e-15   7.7272653807962011e-15   8.9160674857107276e-15   9.1503935961157208e-15   1.0509279139994154e-14   1.0764594798398195e-14   1.2286321365032447e-14   1.2566008585026896e-14   1.4242963668588904e-14   1.4550327931956540e-14   1.6374550346107120e-14   1.6712809916198105e-14   1.8676012485844823e-14   1.9048287428302071e-14   2.1141880983945883e-14   2.1551181982505020e-14   2.3766300833705533e-14   2.4215517512406153e-14   2.6543046338718067e-14   2.7034935088187203e-14   2.9465537403032225e-14   3.0002708573665586e-14   3.2526857022595923e-14   3.3111761234573396e-14   3.5719769643379198e-14   3.6354682999367927e-14   3.9036740940827124e-14   3.9723748768993179e-14   4.2469958300923913e-14   4.3210937083262635e-14   4.6011353024046481e-14   4.6807949926478575e-14   4.9652623239033743e-14   5.0506232501528217e-14   5.3385258879643626e-14   5.4296994055865215e-14   5.7200567824485388e-14   5.8171228651838669e-14   6.1089704058599729e-14   6.2119736275195378e-14   6.5043698290462533e-14   6.6133144065644656e-14   6.9053491593982603e-14   7.0201927329129816e-14   7.3109972627260473e-14   7.4316429591286285e-14   7.7204020174625062e-14   7.8466882395197893e-14   8.1326552755917425e-14   8.2643422799902842e-14   8.5468588074186754e-14   8.6836108548255785e-14   8.9621316889201946e-14   9.1034929746834795e-14   9.3776198323740130e-14   9.5229814320788883e-14   9.7925086989215098e-14   9.9410625453724303e-14   1.0206041079936806e-13   1.0356714652561725e-13   1.0617542822204771e-13   1.0768904775587084e-13   1.1026461856097102e-13   1.1176582682430537e-13   1.1432429671096067e-13   1.1578671246405066e-13   1.1835362745843790e-13   1.1974052065498965e-13   1.2235637584926617e-13   1.2361546038898185e-13   1.2634408307252923e-13   1.2739893045677987e-13   1.3034213983642369e-13   1.3107750573239621e-13   1.3440204862460007e-13   1.3463786725588419e-13   1.3862741100295562e-13   1.3807138553921529e-13   1.4323034096219985e-13   1.4139226684932324e-13   1.4864700583235242e-13   1.4470726765553336e-13   1.5568818454771730e-13   1.4849034556256187e-13   1.6501798130719169e-13   1.5468552258691928e-13   1.7148234778204927e-13   1.7072389436437869e-13   1.9707051101630390e-13   2.1278803567025424e-13   1.0574760863312379e-11   4.3700433328898414e-13   2.6457999340088512e-13   1.5542412263124017e-13   1.8340148475789522e-13   1.8340148475905851e-13   1.6521813717182418e-13   1.8862620731894374e-13   1.6271113016861603e-13   1.7684625753917816e-13   1.6349645829203449e-13   1.6952101965015401e-13   1.6524479619866764e-13   1.6761892399779156e-13   1.6704918733320925e-13   1.6791536226537662e-13   1.6863221701537229e-13   1.6889760113747886e-13   1.6992300299284034e-13   1.6997813452198398e-13   1.7091343274519281e-13   1.7093195446212615e-13   1.7161303581695208e-13   1.7167322168966758e-13   1.7203493304333748e-13   1.7217122392229548e-13   1.7219167210124422e-13   1.7241770310716245e-13   1.7209425529052954e-13   1.7241361151582997e-13   1.7175217066121405e-13   1.7216358507022538e-13   1.7117369234949217e-13   1.7167361806509126e-13   1.7036620976793651e-13   1.7095010894914770e-13   1.6933651354983896e-13   1.6999950185517721e-13   1.6809102449826417e-13   1.6882818653061012e-13   1.6663597010500482e-13   1.6744250480594578e-13   1.6497751849755522e-13   1.6584879722100008e-13   1.6312187858102844e-13   1.6405345855479789e-13   1.6107537360478848e-13   1.6206299046214915e-13   1.5884449566732113e-13   1.5988404624787700e-13   1.5643594365461982e-13   1.5752346622411845e-13   1.5385665009359099e-13   1.5498830437327563e-13   1.5111379785726321e-13   1.5228584725960014e-13   1.4821483007929388e-13   1.4942362604084267e-13   1.4516745382778310e-13   1.4640942294808201e-13   1.4197963904814597e-13   1.4325127257089777e-13   1.3865961383122397e-13   1.3995745922714577e-13   1.3521585622346606e-13   1.3653651109546625e-13   1.3165708367524304e-13   1.3299719112790457e-13   1.2799223985117456e-13   1.2934848560114030e-13   1.2423048017088194e-13   1.2559959076481756e-13   1.2038115524541931e-13   1.2175989745459579e-13   1.1645379309664010e-13   1.1783897434129273e-13   1.1245808047712809e-13   1.1384654997163154e-13   1.0840384296258539e-13   1.0979249344766054e-13   1.0430102405628387e-13   1.0568679433812212e-13   1.0015966416695851e-13   1.0153954185600843e-13   9.5989878557953455e-14   9.7360903194367119e-14   9.1801834700694739e-14   9.3161101520193121e-14   8.7605729713998445e-14   8.8950393170696627e-14   8.3411767347879214e-14   8.4739045242225486e-14   7.9230134538468497e-14   8.0537312009401021e-14   7.5070978151340001e-14   7.6355411878038641e-14   7.0944381571567375e-14   7.2203503997700450e-14   6.6860341430811178e-14   6.8091664879653602e-14   6.2828743862156422e-14   6.4029864833584590e-14   5.8859342358629237e-14   6.0027945941621556e-14   5.4961734132637555e-14   5.6095597627824039e-14   5.1145337947872073e-14   5.2242335094062729e-14   4.7419372014800010e-14   4.8477476726949434e-14   4.3792832152698572e-14   4.4810122396221379e-14   4.0274470774547565e-14   4.1249131932552947e-14   3.6872776018489035e-14   3.7803104337126994e-14   3.3595952084243276e-14   3.4480357574890514e-14   3.0451899275293250e-14   3.1288908995793339e-14   2.7448195930442368e-14   2.8236456378148132e-14   2.4592080044468219e-14   2.5330359726103845e-14   2.1890432552236668e-14   2.2577623972333344e-14   1.9349760569250470e-14   1.9984882308966504e-14   1.6976182429015017e-14   1.7558380748229016e-14   1.4775413164724245e-14   1.5303963102499501e-14   1.2752750750821743e-14   1.3227057306581180e-14   1.0913063942265479e-14   1.1332662808909940e-14   9.2607805882154685e-15   9.6253382581437226e-15   7.7998773243978433e-15   8.1091913570774392e-15   6.5338702151778422e-15   6.7878687978322227e-15   5.4658066215614864e-15   5.6645479489533824e-15   4.5982579702026705e-15   4.7419291741214411e-15   3.9333139985658999e-15   4.0222298172233081e-15   3.4725778479924434e-15   3.5071788115422283e-15   3.2171626060311082e-15   3.1980129523531606e-15   3.1676887792557715e-15   3.0954738753369050e-15   3.3242831941349275e-15   3.1998066326403869e-15   3.6865789619043759e-15   3.5107591954916880e-15   4.2537166772258032e-15   4.0275832508241049e-15   5.0243468245408777e-15   4.7490361711392605e-15   5.9966333835420280e-15   5.6733841539037231e-15   7.1682586376863535e-15   6.7984065214795053e-15   8.5364291208484608e-15   8.1214012204455892e-15   1.0097882821078745e-14   9.6391914041558400e-15   1.1848897436630957e-14   1.1348133166136437e-14   1.3785299857191356e-14   1.3244124375305009e-14   1.5902476760591424e-14   1.5322614554198954e-14   1.8195386272190645e-14   1.7578615795024048e-14   2.0658570766827372e-14   2.0006714668310113e-14   2.3286170636774552e-14   2.2601085070794870e-14   2.6071939230813772e-14   2.5355502030464212e-14   2.9009258744941108e-14   2.8263356196195216e-14   3.2091157008478114e-14   3.1317669247806273e-14   3.5310325265022612e-14   3.4511109859448436e-14   3.8659137183387795e-14   3.7836010499698840e-14   4.2129668261393740e-14   4.1284384133207256e-14   4.5713716447011744e-14   4.4847941881394268e-14   4.9402823494635452e-14   4.8518110519160567e-14   5.3188297339108454e-14   5.2286049748567451e-14   5.7061234893937005e-14   5.6142669299977505e-14   6.1012546092366694e-14   6.0078645123835580e-14   6.5032978259133141e-14   6.4084434488913270e-14   6.9113141490473653e-14   6.8150288721277100e-14   7.3243534537463058e-14   7.2266263532669000e-14   7.7414571215380837e-14   7.6422224732282420e-14   8.1616607185709591e-14   8.0607848131667631e-14   8.5839966754711909e-14   8.4812610874062355e-14   9.0074968893800424e-14   8.9025770151004062e-14   9.4311951364505664e-14   9.3236324217925319e-14   9.8541290885278158e-14   9.7432947450600063e-14   1.0275341495074644e-13   1.0160388695270422e-13   1.0693879718970386e-13   1.0573680204086232e-13   1.1108792121292224e-13   1.0981851769084467e-13   1.1519118125337159e-13   1.1383464635451355e-13   1.1923865572217868e-13   1.1776900586291054e-13   1.2321961506743938e-13   1.2160271819030466e-13   1.2712145033632389e-13   1.2531280360705531e-13   1.3092727481564929e-13   1.2886997483144698e-13   1.3461029300118025e-13   1.3223517063312358e-13   1.3811975790998173e-13   1.3535414714433702e-13   1.4134355629033431e-13   1.3814919083926834e-13   1.4400247836575299e-13   1.4050650649897291e-13   1.4534404610496167e-13   1.4225364497947820e-13   1.4333132778692165e-13   1.4308534508059811e-13   1.3364866193674420e-13   1.4216789649932521e-13   1.2147771249239469e-13   1.3652970538184813e-13   2.3078602363459961e-13   1.2681184757823807e-13   1.9936411575714427e-13   2.1580405540784693e-13   1.5774039310707487e-13   1.4252022016362494e-13   1.8862620732438532e-13   1.6521813717255773e-13   1.7690905935259083e-13   1.7690905935673800e-13   1.7183458690642741e-13   1.8028002032012885e-13   1.7030303857638937e-13   1.7784452612709767e-13   1.7029244243842115e-13   1.7528976017035995e-13   1.7090195385350684e-13   1.7399010992691255e-13   1.7168793855697680e-13   1.7361156122933443e-13   1.7243283284661421e-13   1.7369007404968389e-13   1.7303256131856110e-13   1.7392203538850758e-13   1.7343832439810903e-13   1.7413523671991351e-13   1.7362810138963993e-13   1.7423554718446249e-13   1.7359298480157024e-13   1.7417211449994083e-13   1.7333060757550551e-13   1.7391788430897067e-13   1.7284194584198390e-13   1.7345905483629672e-13   1.7212974634303340e-13   1.7278936585984753e-13   1.7119774905448975e-13   1.7190697034194429e-13   1.7005030453201584e-13   1.7081269542516554e-13   1.6869218988673324e-13   1.6950906186917908e-13   1.6712852409547108e-13   1.6799972287981942e-13   1.6536473322369416e-13   1.6628913968492004e-13   1.6340653920062041e-13   1.6438239070687351e-13   1.6125995864183766e-13   1.6228505848488160e-13   1.5893130581156000e-13   1.6000316061736319e-13   1.5642719507899893e-13   1.5754310663240950e-13   1.5375454209263976e-13   1.5491166904921958e-13   1.5092056252881273e-13   1.5211596287505896e-13   1.4793276871766886e-13   1.4916342863340576e-13   1.4479896277124194e-13   1.4606181813849305e-13   1.4152722896892253e-13   1.4281918011404731e-13   1.3812592242185972e-13   1.3944384584150107e-13   1.3460365714133673e-13   1.3594441447642579e-13   1.3096929157450670e-13   1.3232973695112197e-13   1.2723191286810171e-13   1.2860889946496188e-13   1.2340081999210661e-13   1.2479120574058539e-13   1.1948550565576704e-13   1.2088615834509489e-13   1.1549563657353239e-13   1.1690343935006800e-13   1.1144103394908808e-13   1.1285289008899342e-13   1.0733165197956428e-13   1.0874449011321390e-13   1.0317755685647558e-13   1.0458833569814209e-13   9.8988903943346747e-14   1.0039461763696189e-13   9.4775915925825483e-14   9.6173598844656196e-14   9.0548859180116420e-14   9.1935590701873765e-14   8.6318020935983762e-14   8.7690931122403375e-14   8.2093685353580868e-14   8.3449959528184042e-14   7.7886110346674205e-14   7.9222994246097724e-14   7.3705503463204941e-14   7.5020308339296913e-14   6.9561998607111773e-14   7.0852106101847239e-14   6.5465632273163777e-14   6.6728499179239935e-14   6.1426319979257215e-14   6.2659483219352335e-14   5.7453833298865099e-14   5.8654914548075168e-14   5.3557776960834738e-14   5.4724487052036906e-14   4.9747565945868471e-14   5.0877709509996855e-14   4.6032403823397775e-14   4.7123883281098984e-14   4.2421260598788894e-14   4.3472080349138175e-14   3.8922851797517250e-14   3.9931122132764849e-14   3.5545617935459677e-14   3.6509558606253967e-14   3.2297704275868939e-14   3.3215648035502114e-14   2.9186941935980884e-14   3.0057337617791047e-14   2.6220829140549277e-14   2.7042244709253263e-14   2.3406513512882065e-14   2.4177638715815241e-14   2.0750775274503125e-14   2.1470423928297695e-14   1.8260010964304187e-14   1.8927123338541874e-14   1.5940218549703511e-14   1.6553862999723433e-14   1.3796983080706834e-14   1.4356357721767163e-14   1.1835463710857060e-14   1.2339897489215507e-14   1.0060381247854640e-14   1.0509334862820423e-14   8.4760071913068017e-15   8.8690737229649295e-15   7.0861536605521564e-15   7.4230587239979484e-15   5.8941644374873702e-15   6.1747660855669242e-15   4.9029071171090578e-15   5.1271952957157392e-15   4.1147664946906966e-15   4.2828622256731444e-15   3.5316389687984671e-15   3.6437931448641947e-15   3.1549282495361132e-15   3.2115200199416517e-15   2.9855421828757471e-15   2.9870769347992729e-15   3.0238908338498354e-15   2.9709978244052832e-15   3.2698856278454516e-15   3.1633152501633407e-15   3.7229398823143772e-15   3.5635603625546903e-15   4.3819703838043523e-15   4.1707642290713884e-15   5.2454002395873598e-15   4.9834601365358821e-15   6.3111628959138244e-15   5.9996871752793049e-15   7.5767073085868619e-15   7.2169949636830839e-15   9.0390043333248164e-15   8.6324494749184966e-15   1.0694554181094150e-14   1.0242640031139608e-14   1.2539395075236944e-14   1.2043687350245287e-14   1.4569112932717044e-14   1.4031252647633761e-14   1.6778852178222741e-14   1.6200547780115690e-14   1.9163327512157701e-14   1.8546346305819899e-14   2.1716836790296638e-14   2.1062995556206763e-14   2.4433274686400575e-14   2.3744429428957859e-14   2.7306147422891436e-14   2.6584182151663113e-14   3.0328588188824766e-14   2.9575402474389526e-14   3.3493373413704208e-14   3.2710868720787796e-14   3.6792939645231865e-14   3.5983004183219651e-14   4.0219401143405445e-14   3.9383892751818955e-14   4.3764567578532563e-14   4.2905294810176500e-14   4.7419962508408688e-14   4.6538662992035973e-14   5.1176841371497840e-14   5.0275157431632428e-14   5.5026209897071866e-14   5.4105660371334027e-14   5.8958841142321345e-14   5.8020789336515584e-14   6.2965292493216624e-14   6.2010908580407295e-14   6.7035919925396263e-14   6.6066137452998930e-14   7.1160890436510440e-14   7.0176355120974789e-14   7.5330189614097307e-14   7.4331199539160089e-14   7.9533624050925093e-14   7.8520058615022308e-14   8.3760813691250538e-14   8.2732050722192555e-14   8.8001171421929261e-14   8.6955989848608320e-14   9.2243861773813288e-14   9.1180329246200024e-14   9.6477728053321003e-14   9.5393074522637932e-14   1.0069117061413458e-13   9.9581652830006649e-14   1.0487194712076214e-13   1.0373271788937797e-13   1.0900684652777166e-13   1.0783186131398602e-13   1.1308115316218320e-13   1.1186318359152603e-13   1.1707775272979094e-13   1.1580865406660159e-13   1.2097560930943604e-13   1.1964714720901004e-13   1.2474710102354015e-13   1.2335297737057599e-13   1.2835321448774908e-13   1.2689364284371561e-13   1.3173458135936399e-13   1.3022630497769588e-13   1.3479419467786284e-13   1.3329220185390594e-13   1.3736318782389125e-13   1.3600759135189210e-13   1.3913276142884083e-13   1.3824858222774738e-13   1.3952610778954323e-13   1.3982449100662528e-13   1.3751293400893223e-13   1.4042946038744194e-13   1.3165562074948306e-13   1.3957075521451481e-13   1.2192664641765116e-13   1.3667152970201167e-13   1.1585875023513155e-13   1.3298614615255098e-13   1.2426673900618727e-13   1.4054462857918773e-13   1.7821192113956985e-13   1.7906147806193784e-13   1.5075599876264024e-13   1.4818862296281958e-13   1.7684625753728744e-13   1.6271113016525687e-13   1.8028002031524531e-13   1.7183458689504694e-13   1.7764378114227575e-13   1.7764378114539800e-13   1.7574055232997175e-13   1.7937030165456468e-13   1.7487901457679325e-13   1.7890376102719429e-13   1.7466712154049675e-13   1.7799757010802227e-13   1.7477848689630363e-13   1.7730455257372236e-13   1.7499633707361393e-13   1.7688508759656173e-13   1.7518674958330105e-13   1.7662984877550853e-13   1.7526984284829370e-13   1.7642028238279407e-13   1.7519889116993599e-13   1.7616653414545192e-13   1.7494703589495461e-13   1.7580771551605950e-13   1.7449930031451906e-13   1.7530455155335037e-13   1.73847898