<?xml version="1.0"?>
<VTKFile type="UnstructuredGrid"  version="0.1"  >
<UnstructuredGrid>
<Piece  NumberOfPoints="16641" NumberOfCells="32768">
<Points>
<DataArray  type="Float64"  NumberOfComponents="3"  format="ascii">0 0 0  0.0078125 0 0  0.015625 0 0  0.0234375 0 0  0.03125 0 0  0.0390625 0 0  0.046875 0 0  0.0546875 0 0  0.0625 0 0  0.0703125 0 0  0.078125 0 0  0.0859375 0 0  0.09375 0 0  0.1015625 0 0  0.109375 0 0  0.1171875 0 0  0.125 0 0  0.1328125 0 0  0.140625 0 0  0.1484375 0 0  0.15625 0 0  0.1640625 0 0  0.171875 0 0  0.1796875 0 0  0.1875 0 0  0.1953125 0 0  0.203125 0 0  0.2109375 0 0  0.21875 0 0  0.2265625 0 0  0.234375 0 0  0.2421875 0 0  0.25 0 0  0.2578125 0 0  0.265625 0 0  0.2734375 0 0  0.28125 0 0  0.2890625 0 0  0.296875 0 0  0.3046875 0 0  0.3125 0 0  0.3203125 0 0  0.328125 0 0  0.3359375 0 0  0.34375 0 0  0.3515625 0 0  0.359375 0 0  0.3671875 0 0  0.375 0 0  0.3828125 0 0  0.390625 0 0  0.3984375 0 0  0.40625 0 0  0.4140625 0 0  0.421875 0 0  0.4296875 0 0  0.4375 0 0  0.4453125 0 0  0.453125 0 0  0.4609375 0 0  0.46875 0 0  0.4765625 0 0  0.484375 0 0  0.4921875 0 0  0.5 0 0  0.5078125 0 0  0.515625 0 0  0.5234375 0 0  0.53125 0 0  0.5390625 0 0  0.546875 0 0  0.5546875 0 0  0.5625 0 0  0.5703125 0 0  0.578125 0 0  0.5859375 0 0  0.59375 0 0  0.6015625 0 0  0.609375 0 0  0.6171875 0 0  0.625 0 0  0.6328125 0 0  0.640625 0 0  0.6484375 0 0  0.65625 0 0  0.6640625 0 0  0.671875 0 0  0.6796875 0 0  0.6875 0 0  0.6953125 0 0  0.703125 0 0  0.7109375 0 0  0.71875 0 0  0.7265625 0 0  0.734375 0 0  0.7421875 0 0  0.75 0 0  0.7578125 0 0  0.765625 0 0  0.7734375 0 0  0.78125 0 0  0.7890625 0 0  0.796875 0 0  0.8046875 0 0  0.8125 0 0  0.8203125 0 0  0.828125 0 0  0.8359375 0 0  0.84375 0 0  0.8515625 0 0  0.859375 0 0  0.8671875 0 0  0.875 0 0  0.8828125 0 0  0.890625 0 0  0.8984375 0 0  0.90625 0 0  0.9140625 0 0  0.921875 0 0  0.9296875 0 0  0.9375 0 0  0.9453125 0 0  0.953125 0 0  0.9609375 0 0  0.96875 0 0  0.9765625 0 0  0.984375 0 0  0.9921875 0 0  1 0 0  0 0.0078125 0  0.0078125 0.0078125 0  0.015625 0.0078125 0  0.0234375 0.0078125 0  0.03125 0.0078125 0  0.0390625 0.0078125 0  0.046875 0.0078125 0  0.0546875 0.0078125 0  0.0625 0.0078125 0  0.0703125 0.0078125 0  0.078125 0.0078125 0  0.0859375 0.0078125 0  0.09375 0.0078125 0  0.1015625 0.0078125 0  0.109375 0.0078125 0  0.1171875 0.0078125 0  0.125 0.0078125 0  0.1328125 0.0078125 0  0.140625 0.0078125 0  0.1484375 0.0078125 0  0.15625 0.0078125 0  0.1640625 0.0078125 0  0.171875 0.0078125 0  0.1796875 0.0078125 0  0.1875 0.0078125 0  0.1953125 0.0078125 0  0.203125 0.0078125 0  0.2109375 0.0078125 0  0.21875 0.0078125 0  0.2265625 0.0078125 0  0.234375 0.0078125 0  0.2421875 0.0078125 0  0.25 0.0078125 0  0.2578125 0.0078125 0  0.265625 0.0078125 0  0.2734375 0.0078125 0  0.28125 0.0078125 0  0.2890625 0.0078125 0  0.296875 0.0078125 0  0.3046875 0.0078125 0  0.3125 0.0078125 0  0.3203125 0.0078125 0  0.328125 0.0078125 0  0.3359375 0.0078125 0  0.34375 0.0078125 0  0.3515625 0.0078125 0  0.359375 0.0078125 0  0.3671875 0.0078125 0  0.375 0.0078125 0  0.3828125 0.0078125 0  0.390625 0.0078125 0  0.3984375 0.0078125 0  0.40625 0.0078125 0  0.4140625 0.0078125 0  0.421875 0.0078125 0  0.4296875 0.0078125 0  0.4375 0.0078125 0  0.4453125 0.0078125 0  0.453125 0.0078125 0  0.4609375 0.0078125 0  0.46875 0.0078125 0  0.4765625 0.0078125 0  0.484375 0.0078125 0  0.4921875 0.0078125 0  0.5 0.0078125 0  0.5078125 0.0078125 0  0.515625 0.0078125 0  0.5234375 0.0078125 0  0.53125 0.0078125 0  0.5390625 0.0078125 0  0.546875 0.0078125 0  0.5546875 0.0078125 0  0.5625 0.0078125 0  0.5703125 0.0078125 0  0.578125 0.0078125 0  0.5859375 0.0078125 0  0.59375 0.0078125 0  0.6015625 0.0078125 0  0.609375 0.0078125 0  0.6171875 0.0078125 0  0.625 0.0078125 0  0.6328125 0.0078125 0  0.640625 0.0078125 0  0.6484375 0.0078125 0  0.65625 0.0078125 0  0.6640625 0.0078125 0  0.671875 0.0078125 0  0.6796875 0.0078125 0  0.6875 0.0078125 0  0.6953125 0.0078125 0  0.703125 0.0078125 0  0.7109375 0.0078125 0  0.71875 0.0078125 0  0.7265625 0.0078125 0  0.734375 0.0078125 0  0.7421875 0.0078125 0  0.75 0.0078125 0  0.7578125 0.0078125 0  0.765625 0.0078125 0  0.7734375 0.0078125 0  0.78125 0.0078125 0  0.7890625 0.0078125 0  0.796875 0.0078125 0  0.8046875 0.0078125 0  0.8125 0.0078125 0  0.8203125 0.0078125 0  0.828125 0.0078125 0  0.8359375 0.0078125 0  0.84375 0.0078125 0  0.8515625 0.0078125 0  0.859375 0.0078125 0  0.8671875 0.0078125 0  0.875 0.0078125 0  0.8828125 0.0078125 0  0.890625 0.0078125 0  0.8984375 0.0078125 0  0.90625 0.0078125 0  0.9140625 0.0078125 0  0.921875 0.0078125 0  0.9296875 0.0078125 0  0.9375 0.0078125 0  0.9453125 0.0078125 0  0.953125 0.0078125 0  0.9609375 0.0078125 0  0.96875 0.0078125 0  0.9765625 0.0078125 0  0.984375 0.0078125 0  0.9921875 0.0078125 0  1 0.0078125 0  0 0.015625 0  0.0078125 0.015625 0  0.015625 0.015625 0  0.0234375 0.015625 0  0.03125 0.015625 0  0.0390625 0.015625 0  0.046875 0.015625 0  0.0546875 0.015625 0  0.0625 0.015625 0  0.0703125 0.015625 0  0.078125 0.015625 0  0.0859375 0.015625 0  0.09375 0.015625 0  0.1015625 0.015625 0  0.109375 0.015625 0  0.1171875 0.015625 0  0.125 0.015625 0  0.1328125 0.015625 0  0.140625 0.015625 0  0.1484375 0.015625 0  0.15625 0.015625 0  0.1640625 0.015625 0  0.171875 0.015625 0  0.1796875 0.015625 0  0.1875 0.015625 0  0.1953125 0.015625 0  0.203125 0.015625 0  0.2109375 0.015625 0  0.21875 0.015625 0  0.2265625 0.015625 0  0.234375 0.015625 0  0.2421875 0.015625 0  0.25 0.015625 0  0.2578125 0.015625 0  0.265625 0.015625 0  0.2734375 0.015625 0  0.28125 0.015625 0  0.2890625 0.015625 0  0.296875 0.015625 0  0.3046875 0.015625 0  0.3125 0.015625 0  0.3203125 0.015625 0  0.328125 0.015625 0  0.3359375 0.015625 0  0.34375 0.015625 0  0.3515625 0.015625 0  0.359375 0.015625 0  0.3671875 0.015625 0  0.375 0.015625 0  0.3828125 0.015625 0  0.390625 0.015625 0  0.3984375 0.015625 0  0.40625 0.015625 0  0.4140625 0.015625 0  0.421875 0.015625 0  0.4296875 0.015625 0  0.4375 0.015625 0  0.4453125 0.015625 0  0.453125 0.015625 0  0.4609375 0.015625 0  0.46875 0.015625 0  0.4765625 0.015625 0  0.484375 0.015625 0  0.4921875 0.015625 0  0.5 0.015625 0  0.5078125 0.015625 0  0.515625 0.015625 0  0.5234375 0.015625 0  0.53125 0.015625 0  0.5390625 0.015625 0  0.546875 0.015625 0  0.5546875 0.015625 0  0.5625 0.015625 0  0.5703125 0.015625 0  0.578125 0.015625 0  0.5859375 0.015625 0  0.59375 0.015625 0  0.6015625 0.015625 0  0.609375 0.015625 0  0.6171875 0.015625 0  0.625 0.015625 0  0.6328125 0.015625 0  0.640625 0.015625 0  0.6484375 0.015625 0  0.65625 0.015625 0  0.6640625 0.015625 0  0.671875 0.015625 0  0.6796875 0.015625 0  0.6875 0.015625 0  0.6953125 0.015625 0  0.703125 0.015625 0  0.7109375 0.015625 0  0.71875 0.015625 0  0.7265625 0.015625 0  0.734375 0.015625 0  0.7421875 0.015625 0  0.75 0.015625 0  0.7578125 0.015625 0  0.765625 0.015625 0  0.7734375 0.015625 0  0.78125 0.015625 0  0.7890625 0.015625 0  0.796875 0.015625 0  0.8046875 0.015625 0  0.8125 0.015625 0  0.8203125 0.015625 0  0.828125 0.015625 0  0.8359375 0.015625 0  0.84375 0.015625 0  0.8515625 0.015625 0  0.859375 0.015625 0  0.8671875 0.015625 0  0.875 0.015625 0  0.8828125 0.015625 0  0.890625 0.015625 0  0.8984375 0.015625 0  0.90625 0.015625 0  0.9140625 0.015625 0  0.921875 0.015625 0  0.9296875 0.015625 0  0.9375 0.015625 0  0.9453125 0.015625 0  0.953125 0.015625 0  0.9609375 0.015625 0  0.96875 0.015625 0  0.9765625 0.015625 0  0.984375 0.015625 0  0.9921875 0.015625 0  1 0.015625 0  0 0.0234375 0  0.0078125 0.0234375 0  0.015625 0.0234375 0  0.0234375 0.0234375 0  0.03125 0.0234375 0  0.0390625 0.0234375 0  0.046875 0.0234375 0  0.0546875 0.0234375 0  0.0625 0.0234375 0  0.0703125 0.0234375 0  0.078125 0.0234375 0  0.0859375 0.0234375 0  0.09375 0.0234375 0  0.1015625 0.0234375 0  0.109375 0.0234375 0  0.1171875 0.0234375 0  0.125 0.0234375 0  0.1328125 0.0234375 0  0.140625 0.0234375 0  0.1484375 0.0234375 0  0.15625 0.0234375 0  0.1640625 0.0234375 0  0.171875 0.0234375 0  0.1796875 0.0234375 0  0.1875 0.0234375 0  0.1953125 0.0234375 0  0.203125 0.0234375 0  0.2109375 0.0234375 0  0.21875 0.0234375 0  0.2265625 0.0234375 0  0.234375 0.0234375 0  0.2421875 0.0234375 0  0.25 0.0234375 0  0.2578125 0.0234375 0  0.265625 0.0234375 0  0.2734375 0.0234375 0  0.28125 0.0234375 0  0.2890625 0.0234375 0  0.296875 0.0234375 0  0.3046875 0.0234375 0  0.3125 0.0234375 0  0.3203125 0.0234375 0  0.328125 0.0234375 0  0.3359375 0.0234375 0  0.34375 0.0234375 0  0.3515625 0.0234375 0  0.359375 0.0234375 0  0.3671875 0.0234375 0  0.375 0.0234375 0  0.3828125 0.0234375 0  0.390625 0.0234375 0  0.3984375 0.0234375 0  0.40625 0.0234375 0  0.4140625 0.0234375 0  0.421875 0.0234375 0  0.4296875 0.0234375 0  0.4375 0.0234375 0  0.4453125 0.0234375 0  0.453125 0.0234375 0  0.4609375 0.0234375 0  0.46875 0.0234375 0  0.4765625 0.0234375 0  0.484375 0.0234375 0  0.4921875 0.0234375 0  0.5 0.0234375 0  0.5078125 0.0234375 0  0.515625 0.0234375 0  0.5234375 0.0234375 0  0.53125 0.0234375 0  0.5390625 0.0234375 0  0.546875 0.0234375 0  0.5546875 0.0234375 0  0.5625 0.0234375 0  0.5703125 0.0234375 0  0.578125 0.0234375 0  0.5859375 0.0234375 0  0.59375 0.0234375 0  0.6015625 0.0234375 0  0.609375 0.0234375 0  0.6171875 0.0234375 0  0.625 0.0234375 0  0.6328125 0.0234375 0  0.640625 0.0234375 0  0.6484375 0.0234375 0  0.65625 0.0234375 0  0.6640625 0.0234375 0  0.671875 0.0234375 0  0.6796875 0.0234375 0  0.6875 0.0234375 0  0.6953125 0.0234375 0  0.703125 0.0234375 0  0.7109375 0.0234375 0  0.71875 0.0234375 0  0.7265625 0.0234375 0  0.734375 0.0234375 0  0.7421875 0.0234375 0  0.75 0.0234375 0  0.7578125 0.0234375 0  0.765625 0.0234375 0  0.7734375 0.0234375 0  0.78125 0.0234375 0  0.7890625 0.0234375 0  0.796875 0.0234375 0  0.8046875 0.0234375 0  0.8125 0.0234375 0  0.8203125 0.0234375 0  0.828125 0.0234375 0  0.8359375 0.0234375 0  0.84375 0.0234375 0  0.8515625 0.0234375 0  0.859375 0.0234375 0  0.8671
[...]
<CellData  Scalars="f_31641"> 
<DataArray  type="Float64"  Name="f_31641"  format="ascii">2.1411920780122837e-12   2.1411920780091450e-12   3.7896973430114268e-12   4.9180950121816883e-12   5.8333346938333589e-12   7.8684511103468181e-12   8.2569136505618134e-12   1.1374781226838844e-11   1.1046778774917501e-11   1.5413736379222260e-11   1.4189873433933546e-11   1.9964752573072846e-11   1.7673239181125588e-11   2.5008121241349648e-11   2.1483841763458334e-11   3.0524358184262492e-11   2.5608489704712916e-11   3.6493943950231299e-11   3.0033782699515584e-11   4.2897183075832427e-11   3.4746075687245802e-11   4.9714115081816350e-11   3.9731454654516916e-11   5.6924456096873767e-11   4.4975722060504729e-11   6.4507561939555580e-11   5.0464390220624334e-11   7.2442407334832564e-11   5.6182681258320411e-11   8.0707577662404194e-11   6.2115532485500575e-11   8.9281270633966599e-11   6.8247606300448566e-11   9.8141305970341543e-11   7.4563303873839337e-11   1.0726514161955613e-10   8.1046782039449650e-11   1.1662989539135806e-10   8.7681972919168863e-11   1.2621237113299084e-10   9.4452605895486414e-11   1.3598908874303774e-10   1.0134223161115734e-10   1.4593631745868166e-10   1.0833424772107498e-10   1.5603011194085895e-10   1.1541192616245360e-10   1.6624635076076245e-10   1.2255844173545958e-10   1.7656077694346178e-10   1.2975690181078265e-10   1.8694904026597576e-10   1.3699037699351419e-10   1.9738674104488078e-10   1.4424193258987207e-10   2.0784947515800809e-10   1.5149466073304626e-10   2.1831288008769252e-10   1.5873171303174751e-10   2.2875268176804713e-10   1.6593633361300165e-10   2.3914474204238641e-10   1.7309189243447000e-10   2.4946510654285017e-10   1.8018191875131996e-10   2.5969005281512256e-10   1.8719013462112650e-10   2.6979613852039341e-10   1.9410048833439943e-10   2.7976024954417297e-10   2.0089718766694964e-10   2.8955964785397505e-10   2.0756473285014472e-10   2.9917201896330800e-10   2.1408794915570967e-10   3.0857551883887415e-10   2.2045201899600876e-10   3.1774882011442754e-10   2.2664251344818657e-10   3.2667115747110023e-10   2.3264542310750837e-10   3.3532237204982511e-10   2.3844718817812682e-10   3.4368295476114366e-10   2.4403472772100994e-10   3.5173408837781471e-10   2.4939546796392157e-10   3.5945768826515412e-10   2.5451736960772592e-10   3.6683644166236819e-10   2.5938895403917540e-10   3.7385384538298346e-10   2.6399932838279457e-10   3.8049424182755006e-10   2.6833820931983127e-10   3.8674285322049902e-10   2.7239594560671138e-10   3.9258581395587830e-10   2.7616353922822442e-10   3.9801020098019503e-10   2.7963266513315021e-10   4.0300406210743611e-10   2.8279568948732992e-10   4.0755644220335960e-10   2.8564568639686554e-10   4.1165740715159663e-10   2.8817645305756874e-10   4.1529806554103311e-10   2.9038252328341325e-10   4.1847058801362610e-10   2.9225917937216904e-10   4.2116822420771220e-10   2.9380246228193717e-10   4.2338531725555851e-10   2.9500918008017501e-10   4.2511731578915446e-10   2.9587691464802123e-10   4.2636078342004020e-10   2.9640402660931428e-10   4.2711340566134244e-10   2.9658965847572238e-10   4.2737399426109213e-10   2.9643373599247800e-10   4.2714248895106102e-10   2.9593696767642511e-10   4.2641995657098981e-10   2.9510084254944247e-10   4.2520858759963182e-10   2.9392762606129000e-10   4.2351169006129393e-10   2.9242035420992815e-10   4.2133368084121180e-10   2.9058282588249575e-10   4.1868007442137431e-10   2.8841959341406810e-10   4.1555746905969506e-10   2.8593595139466890e-10   4.1197353042990922e-10   2.8313792375112320e-10   4.0793697277804461e-10   2.8003224912750236e-10   4.0345753763060346e-10   2.7662636459704077e-10   3.9854597009206709e-10   2.7292838774883507e-10   3.9321399280360442e-10   2.6894709718420171e-10   3.8747427761060892e-10   2.6469191147241822e-10   3.8134041501399516e-10   2.6017286661243411e-10   3.7482688147064849e-10   2.5540059205421507e-10   3.6794900461970275e-10   2.5038628533812775e-10   3.6072292652726743e-10   2.4514168540820697e-10   3.5316556502411058e-10   2.3967904466523435e-10   3.4529457323287489e-10   2.3401109982519698e-10   3.3712829738446517e-10   2.2815104164953567e-10   3.2868573302019284e-10   2.2211248362144129e-10   3.1998647968111994e-10   2.1590942964014870e-10   3.1105069420085954e-10   2.0955624080994641e-10   3.0189904270580035e-10   2.0306760139916046e-10   2.9255265143645689e-10   1.9645848405338287e-10   2.8303305650985708e-10   1.8974411433634704e-10   2.7336215274063015e-10   1.8293993468788750e-10   2.6356214163632599e-10   1.7606156787441908e-10   2.5365547869646495e-10   1.6912478002108920e-10   2.4366482012979465e-10   1.6214544330300866e-10   2.3361296912148738e-10   1.5513949838154256e-10   2.2352282175936425e-10   1.4812291666615776e-10   2.1341731275814512e-10   1.4111166248260551e-10   2.0331936109236119e-10   1.3412165522550965e-10   1.9325181565592946e-10   1.2716873157399741e-10   1.8323740107514194e-10   1.2026860784040588e-10   1.7329866377796817e-10   1.1343684252598372e-10   1.6345791843718230e-10   1.0668879914401006e-10   1.5373719488652327e-10   1.0003960937262532e-10   1.4415818561232559e-10   9.3504136588478618e-11   1.3474219390601181e-10   8.7096939823964184e-11   1.2551008276598020e-10   8.0832238180058381e-11   1.1648222460828447e-10   7.4723875713826776e-11   1.0767845185019604e-10   6.8785286801667088e-11   9.9118008397797803e-11   6.3029461956279111e-11   9.0819502055085020e-11   5.7468914052403691e-11   8.2800857840580135e-11   5.2115644871035579e-11   7.5079272160084698e-11   4.6981111832634218e-11   6.7671167740248059e-11   4.2076194717179018e-11   6.0592149159957318e-11   3.7411162083106127e-11   5.3856958735044283e-11   3.2995636970419289e-11   4.7479432392288495e-11   2.8838561292855422e-11   4.1472455006175719e-11   2.4948158060847892e-11   3.5847914432560668e-11   2.1331890180973477e-11   3.0616653128549341e-11   1.7996413960389694e-11   2.5788415721020729e-11   1.4947524461301295e-11   2.1371790070857492e-11   1.2190088204546624e-11   1.7374138072849811e-11   9.7279558589782161e-12   1.3801510257918861e-11   7.5638422956821357e-12   1.0658534514409828e-11   5.6991511143970865e-12   7.9482624785264359e-12   4.1336990996120094e-12   5.6719442950349132e-12   2.8652458425827859e-12   3.8286765131954273e-12   1.8886020737691280e-12   2.4148113507708490e-12   1.1936873200030403e-12   1.4228803065951929e-12   7.6038034072516058e-13   8.3943120097882040e-13   4.4542239443020162e-13   6.4030572143968901e-13   4.9180950121827950e-12   3.7896973430015790e-12   7.5799182028377263e-12   7.5799182028295079e-12   1.0839473036923015e-11   1.0808586550358999e-11   1.4652787430272522e-11   1.4605542357883612e-11   1.8991373884445901e-11   1.8934409463741419e-11   2.3831836732821913e-11   2.3768245717460301e-11   2.9152940066443691e-11   2.9084033605697782e-11   3.4934349627421599e-11   3.4860530613490604e-11   4.1156022971400891e-11   4.1077215853280303e-11   4.7797897485498054e-11   4.7713763277661393e-11   5.4839721948578546e-11   5.4749770251777727e-11   6.2260962119280400e-11   6.2164612676333676e-11   7.0040747982410654e-11   6.9937366562798888e-11   7.8157846584879044e-11   7.8046767239603882e-11   8.6590651853218826e-11   8.6471191613360895e-11   9.5317186420007565e-11   9.5188655625135585e-11   1.0431511237952104e-10   1.0417682236922328e-10   1.1356174894709664e-10   1.1341301809372304e-10   1.2303409562511852e-10   1.2287425427472901e-10   1.3270885985631654e-10   1.3253725451681657e-10   1.4256248840424380e-10   1.4237848538587911e-10   1.5257120186273391e-10   1.5237419050252521e-10   1.6271103181390556e-10   1.6250042736416443e-10   1.7295786023705471e-10   1.7273310647157110e-10   1.8328746082769910e-10   1.8304803240194707e-10   1.9367554193372579e-10   1.9342094651861340e-10   2.0409779084105334e-10   2.0382757105405275e-10   2.1452991917577934e-10   2.1424365431171420e-10   2.2494770919996308e-10   2.2464501677623416e-10   2.3532706079939281e-10   2.3500759791999775e-10   2.4564403896750778e-10   2.4530750350985207e-10   2.5587492161108455e-10   2.5552105324281641e-10   2.6599624749609824e-10   2.6562482852035076e-10   2.7598486417016737e-10   2.7559572020968348e-10   2.8581797569919915e-10   2.8541097621830071e-10   2.9547319007110482e-10   2.9504824873850458e-10   3.0492856610081337e-10   3.0448564099977858e-10   3.1416265970754765e-10   3.1370175339479380e-10   3.2315456941186606e-10   3.2267572882973668e-10   3.3188398092381712e-10   3.3138729716950349e-10   3.4033121068335382e-10   3.3981681863974064e-10   3.4847724823508373e-10   3.4794532606508921e-10   3.5630379730103288e-10   3.5575456581592486e-10   3.6379331544914224e-10   3.6322703734534895e-10   3.7092905222955376e-10   3.7034603120872658e-10   3.7769508568065107e-10   3.7709566545546497e-10   3.8407635709469669e-10   3.8346092027715017e-10   3.9005870394627640e-10   3.8942767083886436e-10   3.9562889089709446e-10   3.9498271817518801e-10   4.0077463877741407e-10   4.0011381808918852e-10   4.0548465146938913e-10   4.0480970793043342e-10   4.0974864062048844e-10   4.0906013124002841e-10   4.1355734810538137e-10   4.1285586012778382e-10   4.1690256618551032e-10   4.1618871536112881e-10   4.1977715529216155e-10   4.1905158408505205e-10   4.2217505939861364e-10   4.2143843513357137e-10   4.2409131892139145e-10   4.2334433187795338e-10   4.2552208112224571e-10   4.2476544258292029e-10   4.2646460797453087e-10   4.2569904823106826e-10   4.2691728146016702e-10   4.2614354778807808e-10   4.2687960629680819e-10   4.2609846089798063e-10   4.2635221005834560e-10   4.2556442798792029e-10   4.2533684071212950e-10   4.2454320778262423e-10   4.2383636153872373e-10   4.2303767222232606e-10   4.2185474347220148e-10   4.2105179879535440e-10   4.1939705485917264e-10   4.1859066030399264e-10   4.1646944866765785e-10   4.1566041207987023e-10   4.1307914714960904e-10   4.1226827666455652e-10   4.0923442402324854e-10   4.0842252601289445e-10   4.0494458419316958e-10   4.0413246124042746e-10   4.0021994105644130e-10   3.9940838996460870e-10   3.9507179145577323e-10   3.9426160129657711e-10   3.8951238832760441e-10   3.8870433853430855e-10   3.8355491111741672e-10   3.8274976962982376e-10   3.7721343402610317e-10   3.7641195549101686e-10   3.7050289215926556e-10   3.6970581619467388e-10   3.6343904567333109e-10   3.6264709519762696e-10   3.5603844198735904e-10   3.5525232162421807e-10   3.4831837615629917e-10   3.4753877071574617e-10   3.4029684950637933e-10   3.3952442254946678e-10   3.3199252661838108e-10   3.3122791910915827e-10   3.2342469077090753e-10   3.2266851982555914e-10   3.1461319794579445e-10   3.1386605567405260e-10   3.0557842950948720e-10   3.0484088196613076e-10   2.9634124367031605e-10   2.9561382991065206e-10   2.8692292584185188e-10   2.8620615709357037e-10   2.7734513801877886e-10   2.7663949696944726e-10   2.6762986728920327e-10   2.6693580750402919e-10   2.5779937360194988e-10   2.5711731906589367e-10   2.4787613691314181e-10   2.4720648171205956e-10   2.3788280383011054e-10   2.3722591197306672e-10   2.2784213387399725e-10   2.2719833926661650e-10   2.1777694549236813e-10   2.1714655206404694e-10   2.0771006193346042e-10   2.0709334393226277e-10   1.9766425710166235e-10   1.9706145956448820e-10   1.8766220152004403e-10   1.8707354092476428e-10   1.7772640850233131e-10   1.7715207362059138e-10   1.6787918065688275e-10   1.6731933361798254e-10   1.5814255681545045e-10   1.5759733439852825e-10   1.4853825950221094e-10   1.4800777467852437e-10   1.3908764301753835e-10   1.3857198676640136e-10   1.2981164223787137e-10   1.2931088566353534e-10   1.2073072218887095e-10   1.2024491897841228e-10   1.1186482846331550e-10   1.1139401772497361e-10   1.0323333851765975e-10   1.0277754805939303e-10   9.4855013874467833e-11   9.4414263988407121e-11   8.6747953224257219e-11   8.6322261068418912e-11   7.8929546387007890e-11   7.8518931074237587e-11   7.1416429055734639e-11   7.1020917599888709e-11   6.4224438179255042e-11   6.3844072490584298e-11   5.7368567770805822e-11   5.7003412959420629e-11   5.0862924821539048e-11   5.0513079157780859e-11   4.4720684853565369e-11   4.4386291867225860e-11   3.8954046441590927e-11   3.8635309834480754e-11   3.3574183733980801e-11   3.3271386072151860e-11   2.8591195563932593e-11   2.8304722164086849e-11   2.4014049070412245e-11   2.3744419206220281e-11   1.9850514707665930e-11   1.9598423418068142e-11   1.6107087851042778e-11   1.5873463582020643e-11   1.2788889464539692e-11   1.2574976163001158e-11   9.8995336585178924e-12   9.7070120386378861e-12   7.4409419358348777e-12   7.2721160190236787e-12   5.4130697327234544e-12   5.2711667686619384e-12   3.8134855792800336e-12   3.7031616778169728e-12   2.6366999349043087e-12   2.5649366177482403e-12   1.8730882139844296e-12   1.8508682930384532e-12   1.5074755309768089e-12   1.5529909299229535e-12   1.2102559545359221e-12   1.6647817590365842e-12   7.8684511103358321e-12   5.8333346938028243e-12   1.0808586550358025e-11   1.0839473036897870e-11   1.4350084034466578e-11   1.4350084034449653e-11   1.8442876495837646e-11   1.8422419293202424e-11   2.3054147231652441e-11   2.3019085505631601e-11   2.8157803738008838e-11   2.8111653792483551e-11   3.3730815701596767e-11   3.3675671950811656e-11   3.9751617171874187e-11   3.9688643339360391e-11   4.6199300345029379e-11   4.6129048513007806e-11   5.3053171564376390e-11   5.2975793556258213e-11   6.0292498743407470e-11   6.0207883526286922e-11   6.7896366202969729e-11   6.7804228806750595e-11   7.5843592147383112e-11   7.5743531893020226e-11   8.4112684262861913e-11   8.4004223748058366e-11   9.2681819642992131e-11   9.2564431581365508e-11   1.0152884101372889e-10   1.0140196728974494e-10   1.1063126439766901e-10   1.1049433002781121e-10   1.1996629515562484e-10   1.1981871884177604e-10   1.2951085038555996e-10   1.2935205272985559e-10   1.3924158629906152e-10   1.3907099637132094e-10   1.4913492958970637e-10   1.4895199030229441e-10   1.5916711205675097e-10   1.5897128465215882e-10   1.6931420792188671e-10   1.6910497577810815e-10   1.7955217338841447e-10   1.7932904528502186e-10   1.8985688806960109e-10   1.8961940101636889e-10   2.0020419797316282e-10   1.9995191966816863e-10   2.1056995975761073e-10   2.1030249073338874e-10   2.2093008602974168e-10   2.2064706151745983e-10   2.3126059144667564e-10   2.3096168299187018e-10   2.4153763942206577e-10   2.4122255627309841e-10   2.5173758924831003e-10   2.5140607953127942e-10   2.6183704344232390e-10   2.6148889514021630e-10   2.7181289515577929e-10   2.7144793689726186e-10   2.8164237547297221e-10   2.8126047714755874e-10   2.9130310044412234e-10   2.9090417364390918e-10   3.0077311770251978e-10   3.0035711600276320e-10   3.1003095251050035e-10   3.0959787159239151e-10   3.1905565309806498e-10   3.1860553072260062e-10   3.2782683515660520e-10   3.2735975099258082e-10   3.3632472534868071e-10   3.3584080066163121e-10   3.4453020371068876e-10   3.4402960091700610e-10   3.5242484482345948e-10   3.5190776691623559e-10   3.5999095761948411e-10   3.5945764747286365e-10   3.6721162374193498e-10   3.6666236329341761e-10   3.7407073431149999e-10   3.7350584363478222e-10   3.8055302500737962e-10   3.7997286127798381e-10   3.8664410938274038e-10   3.8604906573777893e-10   3.9233051028637642e-10   3.9172101459442853e-10   3.9759968933341590e-10   3.9697620286381802e-10   4.0244007430525036e-10   4.0180309032669835e-10   4.0684108444885332e-10   4.0619112673226542e-10   4.1079315355437023e-10   4.1013077481656210e-10   4.1428775077863367e-10   4.1361353104927808e-10   4.1731739913901733e-10   4.1663194406780908e-10   4.1987569163034490e-10   4.1917963074234869e-10   4.2195730490675312e-10   4.2125128980183692e-10   4.2355801050814704e-10   4.2284271302124279e-10   4.2467468357420468e-10   4.2395079389563612e-10   4.2530530902818670e-10   4.2457353379196278e-10   4.2544898520952779e-10   4.2471004555871415e-10   4.2510592494062139e-10   4.2436055456889607e-10   4.2427745401147263e-10   4.2352639719560132e-10   4.2296600709197733e-10   4.2221001671110798e-10   4.2117512106490432e-10   4.2041495662594219e-10   4.1890942580303426e-10   4.1814585146233519e-10   4.1617463240197654e-10   4.1540841500113757e-10   4.1297751888303447e-10   4.1220942600032708e-10   4.0932591342069029e-10   4.0855671144520934e-10   4.0522867511073766e-10   4.0445912734125293e-10   4.0069567233280351e-10   3.9992653711135133e-10   3.9573775875203837e-10   3.9496978763506150e-10   3.9036674701769973e-10   3.8960068299454675e-10   3.8459538022222134e-10   3.8383195597668573e-10   3.7843730118005406e-10   3.7767723741274887e-10   3.7190701960599461e-10   3.7115102341112472e-10   3.6501987726778462e-10   3.6426864058169539e-10   3.5779201119640800e-10   3.5704620930852927e-10   3.5024031503686297e-10   3.4950060518068291e-10   3.4238239863784622e-10   3.4164941865970535e-10   3.3423654597188582e-10   3.3351091308539851e-10   3.2582167149124774e-10   3.2510398111941927e-10   3.1715727501352557e-10   3.1644809973073419e-10   3.0826339525940617e-10   3.0756328382409697e-10   2.9916056213822481e-10   2.9847003863813773e-10   2.8986974790225371e-10   2.8918931100331946e-10   2.8041231728355641e-10   2.7974243959687432e-10   2.7080997673794489e-10   2.7015110430134651e-10   2.6108472289894155e-10   2.6043727479067289e-10   2.5125879038114322e-10   2.5062315845770145e-10   2.4135459904298679e-10   2.4073114781828829e-10   2.3139470083563219e-10   2.3078376750479525e-10   2.2140172635656159e-10   2.2080362096886166e-10   2.1139833123536692e-10   2.1081333702843994e-10   2.0140714246484864e-10   2.0083551636863813e-10   1.9145070480009793e-10   1.9089267812230996e-10   1.8155142734208810e-10   1.8100720664348751e-10   1.7173153041818506e-10   1.7120129859806691e-10   1.6201299286611312e-10   1.6149691047121078e-10   1.5241749983200508e-10   1.5191570660875754e-10   1.4296639117424210e-10   1.4247900789150105e-10   1.3368061056979732e-10   1.3320774113883351e-10   1.2458065540215869e-10   1.2412238932979640e-10   1.1568652750314474e-10   1.1524294272359577e-10   1.0701768480994556e-10   1.0658885094592331e-10   9.8592993978098922e-11   9.8178976101856016e-11   9.0430683974880165e-11   9.0031546951091026e-11   8.2548300650702446e-11   8.2164114171365625e-11   7.4962662259844486e-11   7.4593506705890207e-11   6.7689815857417739e-11   6.7335789167988274e-11   6.0744994451674557e-11   6.0406220232464342e-11   5.4142574723969481e-11   5.3819211905691121e-11   4.7896035043337850e-11   4.7588289503243800e-11   4.2017913381300049e-11   4.1726052093716755e-11   3.6519764576364044e-11   3.6244133070135833e-11   3.1412116178146513e-11   3.1153160392387902e-11   2.6704421795487228e-11   2.6462715887230702e-11   2.2405010453121854e-11   2.2181292806750273e-11   1.8521029868232876e-11   1.8316250616115735e-11   1.5058380756272977e-11   1.4873765757158363e-11   1.2021638202233069e-11   1.1858776968617213e-11   9.4139548463139312e-12   9.2749238902654490e-12   7.2369393941545688e-12   7.1244786916115041e-12   5.4905038572575828e-12   5.4082739629381987e-12   4.1726778515405043e-12   4.1256409815001278e-12   3.2794161035905608e-12   3.2744085315910881e-12   2.8045799274460156e-12   2.8511480570934301e-12   2.7412004081574152e-12   2.8524133429026157e-12   2.3991724670783231e-12   3.2799381494093030e-12   1.1374781226795615e-11   8.2569136504917325e-12   1.4605542357864338e-11   1.4652787430227492e-11   1.8422419293198123e-11   1.8442876495799525e-11   2.2780033317631323e-11   2.2780033317616760e-11   2.7645550861396237e-11   2.7629501009321009e-11   3.2992168735410047e-11   3.2962999323247185e-11   3.8796022238112116e-11   3.8755693126539704e-11   4.5034746711885463e-11   4.4984534427241025e-11   5.1686730626156276e-11   5.1627408990831902e-11   5.8730686245530582e-11   5.8662657304880430e-11   6.6145388995628059e-11   6.6068782382393040e-11   7.3909517141865397e-11   7.3824264836557651e-11   8.2001554683655244e-11   8.1907446483875446e-11   9.0399735363240457e-11   9.0296459831484400e-11   9.90820141