<?xml version="1.0"?>
<VTKFile type="UnstructuredGrid"  version="0.1"  >
<UnstructuredGrid>
<Piece  NumberOfPoints="16641" NumberOfCells="32768">
<Points>
<DataArray  type="Float64"  NumberOfComponents="3"  format="ascii">0 0 0  0.0078125 0 0  0.015625 0 0  0.0234375 0 0  0.03125 0 0  0.0390625 0 0  0.046875 0 0  0.0546875 0 0  0.0625 0 0  0.0703125 0 0  0.078125 0 0  0.0859375 0 0  0.09375 0 0  0.1015625 0 0  0.109375 0 0  0.1171875 0 0  0.125 0 0  0.1328125 0 0  0.140625 0 0  0.1484375 0 0  0.15625 0 0  0.1640625 0 0  0.171875 0 0  0.1796875 0 0  0.1875 0 0  0.1953125 0 0  0.203125 0 0  0.2109375 0 0  0.21875 0 0  0.2265625 0 0  0.234375 0 0  0.2421875 0 0  0.25 0 0  0.2578125 0 0  0.265625 0 0  0.2734375 0 0  0.28125 0 0  0.2890625 0 0  0.296875 0 0  0.3046875 0 0  0.3125 0 0  0.3203125 0 0  0.328125 0 0  0.3359375 0 0  0.34375 0 0  0.3515625 0 0  0.359375 0 0  0.3671875 0 0  0.375 0 0  0.3828125 0 0  0.390625 0 0  0.3984375 0 0  0.40625 0 0  0.4140625 0 0  0.421875 0 0  0.4296875 0 0  0.4375 0 0  0.4453125 0 0  0.453125 0 0  0.4609375 0 0  0.46875 0 0  0.4765625 0 0  0.484375 0 0  0.4921875 0 0  0.5 0 0  0.5078125 0 0  0.515625 0 0  0.5234375 0 0  0.53125 0 0  0.5390625 0 0  0.546875 0 0  0.5546875 0 0  0.5625 0 0  0.5703125 0 0  0.578125 0 0  0.5859375 0 0  0.59375 0 0  0.6015625 0 0  0.609375 0 0  0.6171875 0 0  0.625 0 0  0.6328125 0 0  0.640625 0 0  0.6484375 0 0  0.65625 0 0  0.6640625 0 0  0.671875 0 0  0.6796875 0 0  0.6875 0 0  0.6953125 0 0  0.703125 0 0  0.7109375 0 0  0.71875 0 0  0.7265625 0 0  0.734375 0 0  0.7421875 0 0  0.75 0 0  0.7578125 0 0  0.765625 0 0  0.7734375 0 0  0.78125 0 0  0.7890625 0 0  0.796875 0 0  0.8046875 0 0  0.8125 0 0  0.8203125 0 0  0.828125 0 0  0.8359375 0 0  0.84375 0 0  0.8515625 0 0  0.859375 0 0  0.8671875 0 0  0.875 0 0  0.8828125 0 0  0.890625 0 0  0.8984375 0 0  0.90625 0 0  0.9140625 0 0  0.921875 0 0  0.9296875 0 0  0.9375 0 0  0.9453125 0 0  0.953125 0 0  0.9609375 0 0  0.96875 0 0  0.9765625 0 0  0.984375 0 0  0.9921875 0 0  1 0 0  0 0.0078125 0  0.0078125 0.0078125 0  0.015625 0.0078125 0  0.0234375 0.0078125 0  0.03125 0.0078125 0  0.0390625 0.0078125 0  0.046875 0.0078125 0  0.0546875 0.0078125 0  0.0625 0.0078125 0  0.0703125 0.0078125 0  0.078125 0.0078125 0  0.0859375 0.0078125 0  0.09375 0.0078125 0  0.1015625 0.0078125 0  0.109375 0.0078125 0  0.1171875 0.0078125 0  0.125 0.0078125 0  0.1328125 0.0078125 0  0.140625 0.0078125 0  0.1484375 0.0078125 0  0.15625 0.0078125 0  0.1640625 0.0078125 0  0.171875 0.0078125 0  0.1796875 0.0078125 0  0.1875 0.0078125 0  0.1953125 0.0078125 0  0.203125 0.0078125 0  0.2109375 0.0078125 0  0.21875 0.0078125 0  0.2265625 0.0078125 0  0.234375 0.0078125 0  0.2421875 0.0078125 0  0.25 0.0078125 0  0.2578125 0.0078125 0  0.265625 0.0078125 0  0.2734375 0.0078125 0  0.28125 0.0078125 0  0.2890625 0.0078125 0  0.296875 0.0078125 0  0.3046875 0.0078125 0  0.3125 0.0078125 0  0.3203125 0.0078125 0  0.328125 0.0078125 0  0.3359375 0.0078125 0  0.34375 0.0078125 0  0.3515625 0.0078125 0  0.359375 0.0078125 0  0.3671875 0.0078125 0  0.375 0.0078125 0  0.3828125 0.0078125 0  0.390625 0.0078125 0  0.3984375 0.0078125 0  0.40625 0.0078125 0  0.4140625 0.0078125 0  0.421875 0.0078125 0  0.4296875 0.0078125 0  0.4375 0.0078125 0  0.4453125 0.0078125 0  0.453125 0.0078125 0  0.4609375 0.0078125 0  0.46875 0.0078125 0  0.4765625 0.0078125 0  0.484375 0.0078125 0  0.4921875 0.0078125 0  0.5 0.0078125 0  0.5078125 0.0078125 0  0.515625 0.0078125 0  0.5234375 0.0078125 0  0.53125 0.0078125 0  0.5390625 0.0078125 0  0.546875 0.0078125 0  0.5546875 0.0078125 0  0.5625 0.0078125 0  0.5703125 0.0078125 0  0.578125 0.0078125 0  0.5859375 0.0078125 0  0.59375 0.0078125 0  0.6015625 0.0078125 0  0.609375 0.0078125 0  0.6171875 0.0078125 0  0.625 0.0078125 0  0.6328125 0.0078125 0  0.640625 0.0078125 0  0.6484375 0.0078125 0  0.65625 0.0078125 0  0.6640625 0.0078125 0  0.671875 0.0078125 0  0.6796875 0.0078125 0  0.6875 0.0078125 0  0.6953125 0.0078125 0  0.703125 0.0078125 0  0.7109375 0.0078125 0  0.71875 0.0078125 0  0.7265625 0.0078125 0  0.734375 0.0078125 0  0.7421875 0.0078125 0  0.75 0.0078125 0  0.7578125 0.0078125 0  0.765625 0.0078125 0  0.7734375 0.0078125 0  0.78125 0.0078125 0  0.7890625 0.0078125 0  0.796875 0.0078125 0  0.8046875 0.0078125 0  0.8125 0.0078125 0  0.8203125 0.0078125 0  0.828125 0.0078125 0  0.8359375 0.0078125 0  0.84375 0.0078125 0  0.8515625 0.0078125 0  0.859375 0.0078125 0  0.8671875 0.0078125 0  0.875 0.0078125 0  0.8828125 0.0078125 0  0.890625 0.0078125 0  0.8984375 0.0078125 0  0.90625 0.0078125 0  0.9140625 0.0078125 0  0.921875 0.0078125 0  0.9296875 0.0078125 0  0.9375 0.0078125 0  0.9453125 0.0078125 0  0.953125 0.0078125 0  0.9609375 0.0078125 0  0.96875 0.0078125 0  0.9765625 0.0078125 0  0.984375 0.0078125 0  0.9921875 0.0078125 0  1 0.0078125 0  0 0.015625 0  0.0078125 0.015625 0  0.015625 0.015625 0  0.0234375 0.015625 0  0.03125 0.015625 0  0.0390625 0.015625 0  0.046875 0.015625 0  0.0546875 0.015625 0  0.0625 0.015625 0  0.0703125 0.015625 0  0.078125 0.015625 0  0.0859375 0.015625 0  0.09375 0.015625 0  0.1015625 0.015625 0  0.109375 0.015625 0  0.1171875 0.015625 0  0.125 0.015625 0  0.1328125 0.015625 0  0.140625 0.015625 0  0.1484375 0.015625 0  0.15625 0.015625 0  0.1640625 0.015625 0  0.171875 0.015625 0  0.1796875 0.015625 0  0.1875 0.015625 0  0.1953125 0.015625 0  0.203125 0.015625 0  0.2109375 0.015625 0  0.21875 0.015625 0  0.2265625 0.015625 0  0.234375 0.015625 0  0.2421875 0.015625 0  0.25 0.015625 0  0.2578125 0.015625 0  0.265625 0.015625 0  0.2734375 0.015625 0  0.28125 0.015625 0  0.2890625 0.015625 0  0.296875 0.015625 0  0.3046875 0.015625 0  0.3125 0.015625 0  0.3203125 0.015625 0  0.328125 0.015625 0  0.3359375 0.015625 0  0.34375 0.015625 0  0.3515625 0.015625 0  0.359375 0.015625 0  0.3671875 0.015625 0  0.375 0.015625 0  0.3828125 0.015625 0  0.390625 0.015625 0  0.3984375 0.015625 0  0.40625 0.015625 0  0.4140625 0.015625 0  0.421875 0.015625 0  0.4296875 0.015625 0  0.4375 0.015625 0  0.4453125 0.015625 0  0.453125 0.015625 0  0.4609375 0.015625 0  0.46875 0.015625 0  0.4765625 0.015625 0  0.484375 0.015625 0  0.4921875 0.015625 0  0.5 0.015625 0  0.5078125 0.015625 0  0.515625 0.015625 0  0.5234375 0.015625 0  0.53125 0.015625 0  0.5390625 0.015625 0  0.546875 0.015625 0  0.5546875 0.015625 0  0.5625 0.015625 0  0.5703125 0.015625 0  0.578125 0.015625 0  0.5859375 0.015625 0  0.59375 0.015625 0  0.6015625 0.015625 0  0.609375 0.015625 0  0.6171875 0.015625 0  0.625 0.015625 0  0.6328125 0.015625 0  0.640625 0.015625 0  0.6484375 0.015625 0  0.65625 0.015625 0  0.6640625 0.015625 0  0.671875 0.015625 0  0.6796875 0.015625 0  0.6875 0.015625 0  0.6953125 0.015625 0  0.703125 0.015625 0  0.7109375 0.015625 0  0.71875 0.015625 0  0.7265625 0.015625 0  0.734375 0.015625 0  0.7421875 0.015625 0  0.75 0.015625 0  0.7578125 0.015625 0  0.765625 0.015625 0  0.7734375 0.015625 0  0.78125 0.015625 0  0.7890625 0.015625 0  0.796875 0.015625 0  0.8046875 0.015625 0  0.8125 0.015625 0  0.8203125 0.015625 0  0.828125 0.015625 0  0.8359375 0.015625 0  0.84375 0.015625 0  0.8515625 0.015625 0  0.859375 0.015625 0  0.8671875 0.015625 0  0.875 0.015625 0  0.8828125 0.015625 0  0.890625 0.015625 0  0.8984375 0.015625 0  0.90625 0.015625 0  0.9140625 0.015625 0  0.921875 0.015625 0  0.9296875 0.015625 0  0.9375 0.015625 0  0.9453125 0.015625 0  0.953125 0.015625 0  0.9609375 0.015625 0  0.96875 0.015625 0  0.9765625 0.015625 0  0.984375 0.015625 0  0.9921875 0.015625 0  1 0.015625 0  0 0.0234375 0  0.0078125 0.0234375 0  0.015625 0.0234375 0  0.0234375 0.0234375 0  0.03125 0.0234375 0  0.0390625 0.0234375 0  0.046875 0.0234375 0  0.0546875 0.0234375 0  0.0625 0.0234375 0  0.0703125 0.0234375 0  0.078125 0.0234375 0  0.0859375 0.0234375 0  0.09375 0.0234375 0  0.1015625 0.0234375 0  0.109375 0.0234375 0  0.1171875 0.0234375 0  0.125 0.0234375 0  0.1328125 0.0234375 0  0.140625 0.0234375 0  0.1484375 0.0234375 0  0.15625 0.0234375 0  0.1640625 0.0234375 0  0.171875 0.0234375 0  0.1796875 0.0234375 0  0.1875 0.0234375 0  0.1953125 0.0234375 0  0.203125 0.0234375 0  0.2109375 0.0234375 0  0.21875 0.0234375 0  0.2265625 0.0234375 0  0.234375 0.0234375 0  0.2421875 0.0234375 0  0.25 0.0234375 0  0.2578125 0.0234375 0  0.265625 0.0234375 0  0.2734375 0.0234375 0  0.28125 0.0234375 0  0.2890625 0.0234375 0  0.296875 0.0234375 0  0.3046875 0.0234375 0  0.3125 0.0234375 0  0.3203125 0.0234375 0  0.328125 0.0234375 0  0.3359375 0.0234375 0  0.34375 0.0234375 0  0.3515625 0.0234375 0  0.359375 0.0234375 0  0.3671875 0.0234375 0  0.375 0.0234375 0  0.3828125 0.0234375 0  0.390625 0.0234375 0  0.3984375 0.0234375 0  0.40625 0.0234375 0  0.4140625 0.0234375 0  0.421875 0.0234375 0  0.4296875 0.0234375 0  0.4375 0.0234375 0  0.4453125 0.0234375 0  0.453125 0.0234375 0  0.4609375 0.0234375 0  0.46875 0.0234375 0  0.4765625 0.0234375 0  0.484375 0.0234375 0  0.4921875 0.0234375 0  0.5 0.0234375 0  0.5078125 0.0234375 0  0.515625 0.0234375 0  0.5234375 0.0234375 0  0.53125 0.0234375 0  0.5390625 0.0234375 0  0.546875 0.0234375 0  0.5546875 0.0234375 0  0.5625 0.0234375 0  0.5703125 0.0234375 0  0.578125 0.0234375 0  0.5859375 0.0234375 0  0.59375 0.0234375 0  0.6015625 0.0234375 0  0.609375 0.0234375 0  0.6171875 0.0234375 0  0.625 0.0234375 0  0.6328125 0.0234375 0  0.640625 0.0234375 0  0.6484375 0.0234375 0  0.65625 0.0234375 0  0.6640625 0.0234375 0  0.671875 0.0234375 0  0.6796875 0.0234375 0  0.6875 0.0234375 0  0.6953125 0.0234375 0  0.703125 0.0234375 0  0.7109375 0.0234375 0  0.71875 0.0234375 0  0.7265625 0.0234375 0  0.734375 0.0234375 0  0.7421875 0.0234375 0  0.75 0.0234375 0  0.7578125 0.0234375 0  0.765625 0.0234375 0  0.7734375 0.0234375 0  0.78125 0.0234375 0  0.7890625 0.0234375 0  0.796875 0.0234375 0  0.8046875 0.0234375 0  0.8125 0.0234375 0  0.8203125 0.0234375 0  0.828125 0.0234375 0  0.8359375 0.0234375 0  0.84375 0.0234375 0  0.8515625 0.0234375 0  0.859375 0.0234375 0  0.8671
[...]
<CellData  Scalars="f_65296"> 
<DataArray  type="Float64"  Name="f_65296"  format="ascii">3.7132477732274238e-08   3.7132477732274397e-08   3.7074502927511142e-08   3.7096814208076375e-08   3.6972023515285637e-08   3.7016591324357700e-08   3.6825283681872257e-08   3.6891999717239713e-08   3.6634634496515963e-08   3.6723337159745288e-08   3.6400532927888296e-08   3.6511007707382427e-08   3.6123540681959684e-08   3.6255520663935125e-08   3.5804322819374771e-08   3.5957489325400130e-08   3.5443646138709860e-08   3.5617629488213591e-08   3.5042377322162597e-08   3.5236757718038940e-08   3.4601480844702145e-08   3.4815789379867074e-08   3.4122016649924011e-08   3.4355736432374905e-08   3.3605137597284008e-08   3.3857704990955468e-08   3.3052086686299927e-08   3.3322892664703016e-08   3.2464194064088784e-08   3.2752585673481798e-08   3.1842873823239420e-08   3.2148155751786565e-08   3.1189620597607349e-08   3.1511056846750973e-08   3.0506005964152511e-08   3.0842821618158781e-08   2.9793674659409383e-08   3.0145057748832015e-08   2.9054340619696635e-08   2.9419444074243175e-08   2.8289782854556840e-08   2.8667726540675511e-08   2.7501841163352824e-08   2.7891714001609870e-08   2.6692411705334692e-08   2.7093273862475384e-08   2.5863442433826221e-08   2.6274327584250871e-08   2.5016928405551916e-08   2.5436846056741819e-08   2.4154906976366861e-08   2.4582844852651342e-08   2.3279452894994565e-08   2.3714379373921581e-08   2.2392673306575190e-08   2.2833539902008701e-08   2.1496702678062508e-08   2.1942446564024452e-08   2.0593697657697014e-08   2.1043244226853651e-08   1.9685831880952386e-08   2.0138097331603495e-08   1.8775290735454310e-08   1.9229184680772144e-08   1.7864266097501403e-08   1.8318694190719482e-08   1.6954951052853654e-08   1.7408817622106669e-08   1.6049534614533509e-08   1.6501745300980729e-08   1.5150196450346751e-08   1.5599660843207940e-08   1.4259101632837508e-08   1.4704735895010200e-08   1.3378395424330392e-08   1.3819124902254320e-08   1.2510198109628124e-08   1.2944959921091461e-08   1.1656599888803832e-08   1.2084345482478460e-08   1.0819655842415692e-08   1.1239353522929795e-08   1.0001380981257309e-08   1.0412018393735434e-08   9.2037453925832165e-09   9.6043319606426516e-09   8.4286694945083110e-09   8.8182388058706563e-09   7.6780194100050677e-09   8.0556315439365712e-09   6.9536024716581796e-09   7.3183462626529733e-09   6.2571628680070023e-09   6.6081581002450120e-09   5.5903774419562553e-09   5.9267769692535948e-09   4.9548516513990373e-09   5.2758434375342948e-09   4.3521157017703339e-09   4.6569247762734209e-09   3.7836208598460244e-09   4.0715111845454601e-09   3.2507359577003623e-09   3.5210121995018655e-09   2.7547440952103831e-09   3.0067533008591305e-09   2.2968395490698023e-09   2.5299727178603561e-09   1.8781248957721223e-09   2.0918184463922371e-09   1.4996083554671138e-09   1.6933454834692140e-09   1.1622013631205389e-09   1.3355132857240177e-09   8.6671637281069835e-10   1.0191834580528335e-09   6.1386490046514796e-10   7.4511767796481393e-10   4.0425580974330896e-10   5.1397586065539183e-10   2.3839384520375124e-10   3.2631456920667731e-10   1.1667841628754204e-10   1.8258567376170887e-10   3.9402635046859048e-11   8.3135262897957057e-11   6.7526099420753668e-12   2.8202809818342682e-11   1.8806997403767271e-11   1.7920595379364858e-11   7.5536812244013033e-11   5.2313389338222594e-11   1.7680549737242738e-10   1.3129839059105246e-10   3.2236925264881519e-10   2.5468542654461852e-10   5.1187762208105815e-10   4.2217741114535866e-10   7.4487433795306447e-10   6.3337106045277636e-10   1.0207984198451880e-09   8.8775786404677003e-10   1.3389855259084941e-09   1.1847253099134052e-09   1.6986695531221404e-09   1.5235583598703074e-09   2.0989844826962728e-09   1.9034411719686583e-09   2.5389664661477274e-09   2.3234590657191186e-09   3.0175561470553661e-09   2.7826007254213341e-09   3.5336012128671007e-09   3.2797606362619520e-09   4.0858591706330269e-09   3.8137417473442480e-09   4.6730003399634495e-09   4.3832583551953137e-09   5.2936110560046664e-09   4.9869392008327706e-09   5.9461970747125948e-09   5.6233307729112839e-09   6.6291871722262143e-09   6.2909008090057086e-09   7.3409369296363733e-09   6.9880419865493331e-09   8.0797326940834676e-09   7.7130757946106357e-09   8.8437957065927212e-09   8.4642565771038570e-09   9.6312863867163601e-09   9.2397757377249234e-09   1.0440308763650835e-08   1.0037766096483890e-08   1.1268915043171862e-08   1.0856306387311486e-08   1.2115110299354925e-08   1.1693425885932800e-08   1.2976857279798000e-08   1.2547109156837701e-08   1.3852081312742901e-08   1.3415300907894494e-08   1.4738675304292622e-08   1.4295910940949458e-08   1.5634504813672424e-08   1.5186819186436605e-08   1.6537413194302215e-08   1.6085880809897386e-08   1.7445226788288080e-08   1.6990931378086703e-08   1.8355760161831612e-08   1.7899792072225614e-08   1.9266821368918466e-08   1.8810274935830087e-08   2.0176217230622059e-08   1.9720188144475039e-08   2.1081758617268225e-08   2.0627341284796501e-08   2.1981265720780303e-08   2.1529550629988593e-08   2.2872573304442784e-08   2.2424644399111975e-08   2.3753535917474175e-08   2.3310467987517208e-08   2.4622033061817938e-08   2.4184889155778037e-08   2.5475974298708976e-08   2.5045803164659547e-08   2.6313304282701891e-08   2.5891137843673844e-08   2.7132007711034012e-08   2.6718858581104446e-08   2.7930114176385114e-08   2.7526973223373037e-08   2.8705702911343080e-08   2.8313536872019627e-08   2.9456907413131304e-08   2.9076656566668670e-08   3.0181919937451990e-08   2.9814495842734752e-08   3.0878995850602466e-08   3.0525279152851208e-08   3.1546457829381376e-08   3.1207296141369757e-08   3.2182699898621090e-08   3.1858905761603296e-08   3.2786191296640392e-08   3.2478540225900347e-08   3.3355480159242516e-08   3.3064708778966384e-08   3.3889197013358815e-08   3.3616001285351535e-08   3.4386058071887256e-08   3.4131091622371185e-08   3.4844868321678221e-08   3.4608740870230049e-08   3.5264524397152334e-08   3.5047800291551486e-08   3.5644017232423015e-08   3.5447214092949182e-08   3.5982434485245439e-08   3.5806021961683906e-08   3.6278962726432368e-08   3.6123361370782847e-08   3.6532889388505235e-08   3.6398469646094908e-08   3.6743604466931016e-08   3.6630685788359836e-08   3.6910601965613001e-08   3.6819452041619591e-08   3.7033481072544907e-08   3.6964315193569359e-08   3.7111947031804560e-08   3.7064927573572564e-08   3.7145811593429221e-08   3.7121047629154987e-08   3.7096814208076348e-08   3.7074502927511453e-08   3.7038971082840490e-08   3.7038971082840569e-08   3.6936705958246895e-08   3.6959016183781809e-08   3.6790263669997954e-08   3.6834829391253393e-08   3.6599995109531093e-08   3.6666708046896025e-08   3.6366356618799513e-08   3.6455055197429218e-08   3.6089908961506642e-08   3.6200378694657320e-08   3.5771315999110938e-08   3.5903289999248504e-08   3.5411343103553681e-08   3.5564502719957810e-08   3.5010855319971776e-08   3.5184830901256899e-08   3.4570815287252500e-08   3.4765187066994943e-08   3.4092280922646144e-08   3.4306580025903792e-08   3.3576402876559899e-08   3.3810112444912968e-08   3.3024421763777679e-08   3.3276978196146824e-08   3.2437665177880127e-08   3.2708459484115608e-08   3.1817544496032487e-08   3.2105923760037021e-08   3.1165551481855724e-08   3.1470820430682624e-08   3.0483254694565710e-08   3.0804677369731380e-08   2.9772295712986921e-08   3.0109097239943473e-08   2.9034385183565921e-08   2.9385753635095890e-08   2.8271298701890872e-08   2.8636387050900887e-08   2.7484872537614627e-08   2.7862800694639721e-08   2.6676999213105070e-08   2.7066856143602568e-08   2.5849622946461167e-08   2.6250468862797366e-08   2.5004734969881510e-08   2.5415603592711464e-08   2.4144368734625593e-08   2.4564269618219071e-08   2.3270595014204098e-08   2.3698515930147705e-08   2.2385516917500282e-08   2.2820426290950903e-08   2.1491264823914134e-08   2.1932114216611207e-08   2.0589991252678182e-08   2.1035717886686344e-08   1.9683865678772069e-08   2.0133394994871651e-08   1.8775069307856818e-08   1.9227317552424984e-08   1.7865789822856028e-08   1.8319666657018702e-08   1.6958216114866851e-08   1.7412627239580889e-08   1.6054533011067541e-08   1.6508382801861045e-08   1.5156916012298337e-08   1.5609110157290325e-08   1.4267526053066414e-08   1.4716974187907037e-08   1.3388504296558294e-08   1.3834122629943215e-08   1.2521966977200071e-08   1.2962680900635034e-08   1.1670000303214801e-08   1.2104746978732024e-08   1.0834655431449996e-08   1.1262386351029186e-08   1.0017943526579458e-08   1.0437627037147345e-08   9.2218309165874930e-09   9.6324547044392443e-09   8.4482343562414930e-09   8.8488078849652069e-09   7.6990164098954527e-09   8.0885733058834463e-09   6.9759809648404065e-09   7.3535813446415990e-09   6.2808688859300644e-09   6.6456016198512105e-09   5.6153538220133619e-09   5.9663387284969767e-09   4.9810381742541050e-09   5.3174281397388259e-09   4.3794492360477800e-09   4.7004322552354978e-09   3.8120355138535417e-09   4.1168366454133892e-09   3.2801632377946917e-09   3.5680464708347060e-09   2.7851130704394736e-09   3.0553830972320374e-09   2.3280770217033151e-09   2.5800809123858285e-09   1.9101555772892345e-09   2.1432843525080548e-09   1.5323550475980325e-09   1.7460451453070109e-09   1.1955851434923593e-09   1.3893197763691554e-09   9.0065678476301918e-10   1.0739671849709762e-09   6.4828014656252958e-10   8.0074669486141583e-10   4.3906294853583421e-10   5.7031618501085686e-10   2.7350899075073849e-10   3.8323050473521866e-10   1.5201693996788458e-10   2.3994013700930492e-10   7.4879369174258994e-11   1.4079011319091209e-10   4.2282052686234475e-11   8.6019181775081278e-11   5.4303518530497808e-11   7.5759233177988067e-11   1.1091485917702244e-10   1.1003498193697409e-10   2.1197980108106797e-10   1.8876390709527408e-10   3.5725503286475978e-10   3.1175645091104470e-10   5.4639079135244073e-10   4.7871647541858554e-10   7.7893170403790805e-10   6.8924197572844358e-10   1.0543178859682895e-09   9.4282604836641230e-10   1.3718862883854515e-09   1.2388581123048995e-09   1.7308722958894005e-09   1.5766253797423955e-09   2.1304115682562301e-09   1.9553145730980274e-09   2.5695421224979450e-09   2.3740138840694508e-09   3.0472066501307682e-09   2.8317151700644126e-09   3.5622550640547608e-09   3.3273163826553607e-09   4.1134472689508357e-09   3.8596242222697738e-09   4.6994561484624965e-09   4.4273570126781246e-09   5.3188707620129857e-09   5.0291477883624430e-09   5.9701997435271891e-09   5.6635475873325892e-09   6.6518748938767943e-09   6.3290289414554924e-09   7.3622549583733734e-09   7.0239895558480806e-09   8.0996295802696785e-09   7.7467561685702749e-09   8.8622234206450735e-09   8.4955885811754968e-09   9.6482004348164497e-09   9.2686838505164464e-09   1.0455668294965133e-08   1.0064180631657881e-08   1.1282682948286697e-08   1.0880163661445727e-08   1.2127253299713372e-08   1.1714668371914773e-08   1.2987346007912889e-08   1.2565685622428581e-08   1.3860890382987724e-08   1.3431166539141270e-08   1.4745783374120133e-08   1.4309027450131878e-08   1.5639894635089103e-08   1.5197154904304342e-08   1.6541071655477556e-08   1.6093410761946869e-08   1.7447144945215269e-08   1.6995637344728634e-08   1.8355933259949300e-08   1.7901662632664875e-08   1.9265248854632127e-08   1.8809305495590935e-08   2.0172902752713320e-08   1.9716380946448170e-08   2.1076710018192697e-08   2.0620705403830182e-08   2.1974495017841771e-08   2.1520101951028767e-08   2.2864096660924161e-08   2.2412405578909303e-08   2.3743373603782131e-08   2.3295468400034210e-08   2.4610209406719953e-08   2.4167164821410948e-08   2.5462517630811008e-08   2.5025396663434262e-08   2.6298246862268407e-08   2.5868098212642687e-08   2.7115385652355615e-08   2.6693241196183631e-08   2.7911967360842552e-08   2.7498839665897511e-08   2.8686074891410294e-08   2.8282954780358101e-08   2.9435845307523127e-08   2.9043699473226060e-08   3.0159474317681935e-08   2.9779242996768251e-08   3.0855220619230621e-08   3.0487815329503644e-08   3.1521410090234102e-08   3.1167711437389903e-08   3.2156439819308822e-08   3.1817295378261817e-08   3.2758781963708264e-08   3.2435004239602374e-08   3.3326987426287010e-08   3.3019351900138434e-08   3.3859689342525576e-08   3.3568932606188644e-08   3.4355606369105526e-08   3.4082424354053978e-08   3.4813545766074544e-08   3.4558592070293664e-08   3.5232406265085662e-08   3.4996290582070001e-08   3.5611180716618360e-08   3.5394467370299504e-08   3.5948958509591650e-08   3.5752165098692816e-08   3.6244927757117122e-08   3.6068523912224580e-08   3.6498377242428491e-08   3.6342783498761822e-08   3.6708698118991352e-08   3.6574284907587152e-08   3.6875385358115986e-08   3.6762472117862027e-08   3.6998038935043949e-08   3.6906893347729878e-08   3.7076364737974548e-08   3.7007202088336576e-08   3.7110175172927274e-08   3.7063157835885867e-08   3.7016591324357726e-08   3.6972023515285968e-08   3.6959016183781459e-08   3.6936705958246848e-08   3.6857209908242189e-08   3.6857209908242156e-08   3.6711416471563614e-08   3.6733725669044331e-08   3.6521985421505273e-08   3.6566549113986922e-08   3.6289371246691699e-08   3.6356081182710579e-08   3.6014132365769549e-08   3.6102826999658246e-08   3.5696929821227916e-08   3.5807394696569341e-08   3.5338525707999041e-08   3.5470493968781255e-08   3.4939781350380876e-08   3.5092934378628334e-08   3.4501655235827796e-08   3.4675623414115316e-08   3.4025200712372483e-08   3.4219564309428922e-08   3.3511563456364887e-08   3.3725853633571291e-08   3.2961978716977444e-08   3.3195678653368351e-08   3.2377768344447191e-08   3.2630314477481197e-08   3.1760337609355919e-08   3.2031120988458878e-08   3.1111171820661620e-08   3.1399539570291777e-08   3.0431832750726760e-08   3.0737089639413761e-08   2.9723954875919862e-08   3.0045364987514241e-08   2.8989241441933686e-08   2.9326029945016183e-08   2.8229460363258178e-08   2.8580815374454757e-08   2.7446439966711858e-08   2.7811514503420290e-08   2.6642064589304381e-08   2.7019978607128748e-08   2.5818270041031275e-08   2.6208112550986781e-08   2.4977038943525675e-08   2.5377870203947699e-08   2.4120395955809061e-08   2.4531249733651903e-08   2.3250402898698525e-08   2.3670288794790806e-08   2.2369153789472822e-08   2.2797059622101056e-08   2.1478769798968551e-08   2.1913664040071794e-08   2.0581394143075343e-08   2.1022228401162832e-08   1.9679186921063313e-08   2.0124898464857671e-08   1.8774319913108163e-08   1.9223834229859934e-08   1.7868971349601987e-08   1.8321204731873873e-08   1.6965320664804201e-08   1.7419182819532306e-08   1.6065543247558061e-08   1.6519939921038463e-08   1.5171805201598625e-08   1.5625640814143566e-08   1.4286258128195620e-08   1.4738438412066044e-08   1.3411033943656752e-08   1.3860468577900527e-08   1.2548239744158600e-08   1.2993844980048818e-08   1.1699952730329807e-08   1.2140654001031104e-08   1.0868215203757042e-08   1.1302949711963772e-08   1.0055029647561162e-08   1.0482748924825917e-08   9.2623539027523268e-09   9.6820263344020020e-09   8.4920964521808395e-09   8.9027097616633456e-09   7.7461118232714341e-09   8.1466755099918795e-09   7.0261961207230415e-09   7.4157438454832707e-09   6.3340826999006247e-09   6.7116746121765284e-09   5.6714379913704141e-09   6.0361629928340625e-09   5.0398574865934653e-09   5.3908354254267815e-09   4.4408618945202913e-09   4.7772456852101919e-09   3.8758934782722543e-09   4.1968711418022114e-09   3.3463125807991476e-09   3.6511092003090537e-09   2.8533943478561910e-09   3.1412739350527097e-09   2.3983256562020400e-09   2.6685929240233440e-09   1.9822022544105948e-09   2.2342042916859371e-09   1.6060261232095389e-09   1.8391539672532511e-09   1.2707030616814933e-09   1.4843931650544711e-09   9.7704050516616636e-10   1.1707760930540070e-09   7.2574558010334325e-10   8.9905789504314608e-10   5.1742340051413205e-10   6.6989283147777878e-10   3.5257561022470446e-10   4.8383270332904970e-10   2.3159917434362394e-10   3.4132552274997373e-10   1.5478542290387493e-10   2.4271443376879753e-10   1.2231934897511763e-10   1.8823688560179979e-10   1.3427916294076098e-10   1.7802406057996162e-10   1.9063610400782611e-10   2.1210055806775017e-10   2.9125450940916152e-10   2.9038433514092181e-10   4.3589214112620852e-10   4.1268690415332968e-10   6.2420076935269963e-10   5.7871378673381561e-10   8.5572701127983765e-10   7.8806522310364861e-10   1.1299134232014512e-09   1.0402371350169058e-09   1.4460998432890057e-09   1.3346223399990245e-09   1.8035249818046676e-09   1.6705120139488342e-09   2.2013282549317697e-09   2.0470973985977466e-09   2.6385518577902182e-09   2.4634717496975184e-09   3.1141430716524037e-09   2.9186325212509836e-09   3.6269567997814050e-09   3.4114837805008775e-09   4.1757583258089098e-09   3.9408388479038766e-09   4.7592262879817795e-09   4.5054231556681680e-09   5.3759558621182808e-09   5.1038773180139931e-09   6.0244621456056882e-09   5.7347604057401639e-09   6.7031837342864639e-09   6.3965534171948624e-09   7.4104864835985067e-09   7.0876629373118812e-09   8.1446674449449406e-09   7.8064249758853694e-09   8.9039589677413193e-09   8.5511089758006855e-09   9.6865329573250848e-09   9.3199219816313941e-09   1.0490505278425044e-08   1.0111012958482921e-08   1.1313940293587243e-08   1.0922477250729796e-08   1.2154855525635522e-08   1.1752361169883761e-08   1.3011226432896400e-08   1.2598666700506046e-08   1.3880991285728245e-08   1.3459356312903779e-08   1.4762056132571093e-08   1.4332357870901390e-08   1.5652299843547843e-08   1.5215569622968725e-08   1.6549579219474086e-08   1.6106865264603755e-08   1.7451734153978061e-08   1.7004099059797277e-08   1.8356592836244586e-08   1.7905111009253404e-08   1.9261976981922117e-08   1.8807732052870519e-08   2.0165707079475460e-08   1.9709789293984249e-08   2.1065607639466963e-08   2.0609111232763895e-08   2.1959512434020016e-08   2.1503532996138600e-08   2.2845269713876116e-08   2.2390901551688239e-08   2.3720747390469907e-08   2.3269080892894442e-08   2.4583838170532321e-08   2.4135957183256592e-08   2.5432464630854953e-08   2.4989443846918471e-08   2.6264584220944670e-08   2.5827486593474458e-08   2.7078194181579143e-08   2.6648068364893459e-08   2.7871336367335974e-08   2.7449214192611016e-08   2.8642101961536292e-08   2.8228995953091785e-08   2.9388636072169340e-08   2.8985537010394140e-08   3.0109142197787958e-08   2.9717016734541313e-08   3.0801886552555799e-08   3.0421674884823601e-08   3.1465202240020427e-08   3.1097815847425503e-08   3.2097493265583271e-08   3.1743812717190138e-08   3.2697238377936203e-08   3.2358111213659214e-08   3.3262994730206136e-08   3.2939233421911690e-08   3.3793401351993676e-08   3.3485781349210931e-08   3.4287182423831364e-08   3.3996440288800704e-08   3.4743150346212287e-08   3.4469981982739485e-08   3.5160208595633494e-08   3.4905267576054597e-08   3.5537354360743679e-08   3.5301250354989907e-08   3.5873680952024188e-08   3.5656978262614756e-08   3.6168379978964333e-08   3.5971596185440648e-08   3.6420743289055856e-08   3.6244348005128396e-08   3.6630164663167165e-08   3.6474578409588266e-08   3.6796141261887370e-08   3.6661734457786350e-08   3.6918274817044105e-08   3.6805366892217061e-08   3.6996272563054408e-08   3.6905131193507354e-08   3.7029947914206294e-08   3.6960788383170317e-08   3.6891999717239991e-08   3.6825283681872813e-08   3.6834829391252857e-08   3.6790263669997729e-08   3.6733725669044106e-08   3.6711416471563442e-08   3.6588930834627880e-08   3.6588930834628191e-08   3.6400792119901970e-08   3.6423100321346354e-08   3.6169760994956917e-08   3.6214322728040011e-08   3.5896392149622287e-08   3.5963099196378598e-08   3.5581342195011624e-08   3.5670033044179030e-08   3.5225368104192673e-08   3.5335828334706384e-08   3.4829325403257373e-08   3.4961288195427392e-08   3.4394166120704567e-08   3.4547312893822457e-08   3.3920936501823104e-08   3.4094897676673325e-08   3.3410774494561555e-08   3.3605130378987347e-08   3.2864907013472466e-08   3.3079188808836799e-08   3.22846469