<?xml version="1.0"?>
<VTKFile type="UnstructuredGrid"  version="0.1"  >
<UnstructuredGrid>
<Piece  NumberOfPoints="16641" NumberOfCells="32768">
<Points>
<DataArray  type="Float64"  NumberOfComponents="3"  format="ascii">0 0 0  0.0078125 0 0  0.015625 0 0  0.0234375 0 0  0.03125 0 0  0.0390625 0 0  0.046875 0 0  0.0546875 0 0  0.0625 0 0  0.0703125 0 0  0.078125 0 0  0.0859375 0 0  0.09375 0 0  0.1015625 0 0  0.109375 0 0  0.1171875 0 0  0.125 0 0  0.1328125 0 0  0.140625 0 0  0.1484375 0 0  0.15625 0 0  0.1640625 0 0  0.171875 0 0  0.1796875 0 0  0.1875 0 0  0.1953125 0 0  0.203125 0 0  0.2109375 0 0  0.21875 0 0  0.2265625 0 0  0.234375 0 0  0.2421875 0 0  0.25 0 0  0.2578125 0 0  0.265625 0 0  0.2734375 0 0  0.28125 0 0  0.2890625 0 0  0.296875 0 0  0.3046875 0 0  0.3125 0 0  0.3203125 0 0  0.328125 0 0  0.3359375 0 0  0.34375 0 0  0.3515625 0 0  0.359375 0 0  0.3671875 0 0  0.375 0 0  0.3828125 0 0  0.390625 0 0  0.3984375 0 0  0.40625 0 0  0.4140625 0 0  0.421875 0 0  0.4296875 0 0  0.4375 0 0  0.4453125 0 0  0.453125 0 0  0.4609375 0 0  0.46875 0 0  0.4765625 0 0  0.484375 0 0  0.4921875 0 0  0.5 0 0  0.5078125 0 0  0.515625 0 0  0.5234375 0 0  0.53125 0 0  0.5390625 0 0  0.546875 0 0  0.5546875 0 0  0.5625 0 0  0.5703125 0 0  0.578125 0 0  0.5859375 0 0  0.59375 0 0  0.6015625 0 0  0.609375 0 0  0.6171875 0 0  0.625 0 0  0.6328125 0 0  0.640625 0 0  0.6484375 0 0  0.65625 0 0  0.6640625 0 0  0.671875 0 0  0.6796875 0 0  0.6875 0 0  0.6953125 0 0  0.703125 0 0  0.7109375 0 0  0.71875 0 0  0.7265625 0 0  0.734375 0 0  0.7421875 0 0  0.75 0 0  0.7578125 0 0  0.765625 0 0  0.7734375 0 0  0.78125 0 0  0.7890625 0 0  0.796875 0 0  0.8046875 0 0  0.8125 0 0  0.8203125 0 0  0.828125 0 0  0.8359375 0 0  0.84375 0 0  0.8515625 0 0  0.859375 0 0  0.8671875 0 0  0.875 0 0  0.8828125 0 0  0.890625 0 0  0.8984375 0 0  0.90625 0 0  0.9140625 0 0  0.921875 0 0  0.9296875 0 0  0.9375 0 0  0.9453125 0 0  0.953125 0 0  0.9609375 0 0  0.96875 0 0  0.9765625 0 0  0.984375 0 0  0.9921875 0 0  1 0 0  0 0.0078125 0  0.0078125 0.0078125 0  0.015625 0.0078125 0  0.0234375 0.0078125 0  0.03125 0.0078125 0  0.0390625 0.0078125 0  0.046875 0.0078125 0  0.0546875 0.0078125 0  0.0625 0.0078125 0  0.0703125 0.0078125 0  0.078125 0.0078125 0  0.0859375 0.0078125 0  0.09375 0.0078125 0  0.1015625 0.0078125 0  0.109375 0.0078125 0  0.1171875 0.0078125 0  0.125 0.0078125 0  0.1328125 0.0078125 0  0.140625 0.0078125 0  0.1484375 0.0078125 0  0.15625 0.0078125 0  0.1640625 0.0078125 0  0.171875 0.0078125 0  0.1796875 0.0078125 0  0.1875 0.0078125 0  0.1953125 0.0078125 0  0.203125 0.0078125 0  0.2109375 0.0078125 0  0.21875 0.0078125 0  0.2265625 0.0078125 0  0.234375 0.0078125 0  0.2421875 0.0078125 0  0.25 0.0078125 0  0.2578125 0.0078125 0  0.265625 0.0078125 0  0.2734375 0.0078125 0  0.28125 0.0078125 0  0.2890625 0.0078125 0  0.296875 0.0078125 0  0.3046875 0.0078125 0  0.3125 0.0078125 0  0.3203125 0.0078125 0  0.328125 0.0078125 0  0.3359375 0.0078125 0  0.34375 0.0078125 0  0.3515625 0.0078125 0  0.359375 0.0078125 0  0.3671875 0.0078125 0  0.375 0.0078125 0  0.3828125 0.0078125 0  0.390625 0.0078125 0  0.3984375 0.0078125 0  0.40625 0.0078125 0  0.4140625 0.0078125 0  0.421875 0.0078125 0  0.4296875 0.0078125 0  0.4375 0.0078125 0  0.4453125 0.0078125 0  0.453125 0.0078125 0  0.4609375 0.0078125 0  0.46875 0.0078125 0  0.4765625 0.0078125 0  0.484375 0.0078125 0  0.4921875 0.0078125 0  0.5 0.0078125 0  0.5078125 0.0078125 0  0.515625 0.0078125 0  0.5234375 0.0078125 0  0.53125 0.0078125 0  0.5390625 0.0078125 0  0.546875 0.0078125 0  0.5546875 0.0078125 0  0.5625 0.0078125 0  0.5703125 0.0078125 0  0.578125 0.0078125 0  0.5859375 0.0078125 0  0.59375 0.0078125 0  0.6015625 0.0078125 0  0.609375 0.0078125 0  0.6171875 0.0078125 0  0.625 0.0078125 0  0.6328125 0.0078125 0  0.640625 0.0078125 0  0.6484375 0.0078125 0  0.65625 0.0078125 0  0.6640625 0.0078125 0  0.671875 0.0078125 0  0.6796875 0.0078125 0  0.6875 0.0078125 0  0.6953125 0.0078125 0  0.703125 0.0078125 0  0.7109375 0.0078125 0  0.71875 0.0078125 0  0.7265625 0.0078125 0  0.734375 0.0078125 0  0.7421875 0.0078125 0  0.75 0.0078125 0  0.7578125 0.0078125 0  0.765625 0.0078125 0  0.7734375 0.0078125 0  0.78125 0.0078125 0  0.7890625 0.0078125 0  0.796875 0.0078125 0  0.8046875 0.0078125 0  0.8125 0.0078125 0  0.8203125 0.0078125 0  0.828125 0.0078125 0  0.8359375 0.0078125 0  0.84375 0.0078125 0  0.8515625 0.0078125 0  0.859375 0.0078125 0  0.8671875 0.0078125 0  0.875 0.0078125 0  0.8828125 0.0078125 0  0.890625 0.0078125 0  0.8984375 0.0078125 0  0.90625 0.0078125 0  0.9140625 0.0078125 0  0.921875 0.0078125 0  0.9296875 0.0078125 0  0.9375 0.0078125 0  0.9453125 0.0078125 0  0.953125 0.0078125 0  0.9609375 0.0078125 0  0.96875 0.0078125 0  0.9765625 0.0078125 0  0.984375 0.0078125 0  0.9921875 0.0078125 0  1 0.0078125 0  0 0.015625 0  0.0078125 0.015625 0  0.015625 0.015625 0  0.0234375 0.015625 0  0.03125 0.015625 0  0.0390625 0.015625 0  0.046875 0.015625 0  0.0546875 0.015625 0  0.0625 0.015625 0  0.0703125 0.015625 0  0.078125 0.015625 0  0.0859375 0.015625 0  0.09375 0.015625 0  0.1015625 0.015625 0  0.109375 0.015625 0  0.1171875 0.015625 0  0.125 0.015625 0  0.1328125 0.015625 0  0.140625 0.015625 0  0.1484375 0.015625 0  0.15625 0.015625 0  0.1640625 0.015625 0  0.171875 0.015625 0  0.1796875 0.015625 0  0.1875 0.015625 0  0.1953125 0.015625 0  0.203125 0.015625 0  0.2109375 0.015625 0  0.21875 0.015625 0  0.2265625 0.015625 0  0.234375 0.015625 0  0.2421875 0.015625 0  0.25 0.015625 0  0.2578125 0.015625 0  0.265625 0.015625 0  0.2734375 0.015625 0  0.28125 0.015625 0  0.2890625 0.015625 0  0.296875 0.015625 0  0.3046875 0.015625 0  0.3125 0.015625 0  0.3203125 0.015625 0  0.328125 0.015625 0  0.3359375 0.015625 0  0.34375 0.015625 0  0.3515625 0.015625 0  0.359375 0.015625 0  0.3671875 0.015625 0  0.375 0.015625 0  0.3828125 0.015625 0  0.390625 0.015625 0  0.3984375 0.015625 0  0.40625 0.015625 0  0.4140625 0.015625 0  0.421875 0.015625 0  0.4296875 0.015625 0  0.4375 0.015625 0  0.4453125 0.015625 0  0.453125 0.015625 0  0.4609375 0.015625 0  0.46875 0.015625 0  0.4765625 0.015625 0  0.484375 0.015625 0  0.4921875 0.015625 0  0.5 0.015625 0  0.5078125 0.015625 0  0.515625 0.015625 0  0.5234375 0.015625 0  0.53125 0.015625 0  0.5390625 0.015625 0  0.546875 0.015625 0  0.5546875 0.015625 0  0.5625 0.015625 0  0.5703125 0.015625 0  0.578125 0.015625 0  0.5859375 0.015625 0  0.59375 0.015625 0  0.6015625 0.015625 0  0.609375 0.015625 0  0.6171875 0.015625 0  0.625 0.015625 0  0.6328125 0.015625 0  0.640625 0.015625 0  0.6484375 0.015625 0  0.65625 0.015625 0  0.6640625 0.015625 0  0.671875 0.015625 0  0.6796875 0.015625 0  0.6875 0.015625 0  0.6953125 0.015625 0  0.703125 0.015625 0  0.7109375 0.015625 0  0.71875 0.015625 0  0.7265625 0.015625 0  0.734375 0.015625 0  0.7421875 0.015625 0  0.75 0.015625 0  0.7578125 0.015625 0  0.765625 0.015625 0  0.7734375 0.015625 0  0.78125 0.015625 0  0.7890625 0.015625 0  0.796875 0.015625 0  0.8046875 0.015625 0  0.8125 0.015625 0  0.8203125 0.015625 0  0.828125 0.015625 0  0.8359375 0.015625 0  0.84375 0.015625 0  0.8515625 0.015625 0  0.859375 0.015625 0  0.8671875 0.015625 0  0.875 0.015625 0  0.8828125 0.015625 0  0.890625 0.015625 0  0.8984375 0.015625 0  0.90625 0.015625 0  0.9140625 0.015625 0  0.921875 0.015625 0  0.9296875 0.015625 0  0.9375 0.015625 0  0.9453125 0.015625 0  0.953125 0.015625 0  0.9609375 0.015625 0  0.96875 0.015625 0  0.9765625 0.015625 0  0.984375 0.015625 0  0.9921875 0.015625 0  1 0.015625 0  0 0.0234375 0  0.0078125 0.0234375 0  0.015625 0.0234375 0  0.0234375 0.0234375 0  0.03125 0.0234375 0  0.0390625 0.0234375 0  0.046875 0.0234375 0  0.0546875 0.0234375 0  0.0625 0.0234375 0  0.0703125 0.0234375 0  0.078125 0.0234375 0  0.0859375 0.0234375 0  0.09375 0.0234375 0  0.1015625 0.0234375 0  0.109375 0.0234375 0  0.1171875 0.0234375 0  0.125 0.0234375 0  0.1328125 0.0234375 0  0.140625 0.0234375 0  0.1484375 0.0234375 0  0.15625 0.0234375 0  0.1640625 0.0234375 0  0.171875 0.0234375 0  0.1796875 0.0234375 0  0.1875 0.0234375 0  0.1953125 0.0234375 0  0.203125 0.0234375 0  0.2109375 0.0234375 0  0.21875 0.0234375 0  0.2265625 0.0234375 0  0.234375 0.0234375 0  0.2421875 0.0234375 0  0.25 0.0234375 0  0.2578125 0.0234375 0  0.265625 0.0234375 0  0.2734375 0.0234375 0  0.28125 0.0234375 0  0.2890625 0.0234375 0  0.296875 0.0234375 0  0.3046875 0.0234375 0  0.3125 0.0234375 0  0.3203125 0.0234375 0  0.328125 0.0234375 0  0.3359375 0.0234375 0  0.34375 0.0234375 0  0.3515625 0.0234375 0  0.359375 0.0234375 0  0.3671875 0.0234375 0  0.375 0.0234375 0  0.3828125 0.0234375 0  0.390625 0.0234375 0  0.3984375 0.0234375 0  0.40625 0.0234375 0  0.4140625 0.0234375 0  0.421875 0.0234375 0  0.4296875 0.0234375 0  0.4375 0.0234375 0  0.4453125 0.0234375 0  0.453125 0.0234375 0  0.4609375 0.0234375 0  0.46875 0.0234375 0  0.4765625 0.0234375 0  0.484375 0.0234375 0  0.4921875 0.0234375 0  0.5 0.0234375 0  0.5078125 0.0234375 0  0.515625 0.0234375 0  0.5234375 0.0234375 0  0.53125 0.0234375 0  0.5390625 0.0234375 0  0.546875 0.0234375 0  0.5546875 0.0234375 0  0.5625 0.0234375 0  0.5703125 0.0234375 0  0.578125 0.0234375 0  0.5859375 0.0234375 0  0.59375 0.0234375 0  0.6015625 0.0234375 0  0.609375 0.0234375 0  0.6171875 0.0234375 0  0.625 0.0234375 0  0.6328125 0.0234375 0  0.640625 0.0234375 0  0.6484375 0.0234375 0  0.65625 0.0234375 0  0.6640625 0.0234375 0  0.671875 0.0234375 0  0.6796875 0.0234375 0  0.6875 0.0234375 0  0.6953125 0.0234375 0  0.703125 0.0234375 0  0.7109375 0.0234375 0  0.71875 0.0234375 0  0.7265625 0.0234375 0  0.734375 0.0234375 0  0.7421875 0.0234375 0  0.75 0.0234375 0  0.7578125 0.0234375 0  0.765625 0.0234375 0  0.7734375 0.0234375 0  0.78125 0.0234375 0  0.7890625 0.0234375 0  0.796875 0.0234375 0  0.8046875 0.0234375 0  0.8125 0.0234375 0  0.8203125 0.0234375 0  0.828125 0.0234375 0  0.8359375 0.0234375 0  0.84375 0.0234375 0  0.8515625 0.0234375 0  0.859375 0.0234375 0  0.8671
[...]
<CellData  Scalars="f_6340"> 
<DataArray  type="Float64"  Name="f_6340"  format="ascii">2.3540903295235248e-06   2.3540903295235223e-06   2.3495390848811608e-06   2.3509280501998597e-06   2.3421966961729786e-06   2.3449708848978128e-06   2.3320793523269951e-06   2.3362317132832554e-06   2.3192101017212683e-06   2.3247302888699144e-06   2.3036187081509294e-06   2.3104931028060551e-06   2.2853415392064956e-06   2.2935532801935253e-06   2.2644214589901832e-06   2.2739504807084284e-06   2.2409077146703510e-06   2.2517307929765306e-06   2.2148558124890158e-06   2.2269466182907993e-06   2.1863273813191635e-06   2.1996565417483986e-06   2.1553900229795701e-06   2.1699251899930013e-06   2.1221171490599655e-06   2.1378230753008704e-06   2.0865878043007313e-06   2.1034264260352696e-06   2.0488864767435904e-06   2.0668170036691003e-06   2.0091028949796335e-06   2.0280819066864672e-06   1.9673318128993821e-06   1.9873133617510430e-06   1.9236727824074555e-06   1.9446085025887998e-06   1.8782299146120414e-06   1.9000691370809657e-06   1.8311116300387867e-06   1.8538015031012552e-06   1.7824303984527294e-06   1.8059160136696654e-06   1.7323024689031361e-06   1.7565269920224772e-06   1.6808475906328250e-06   1.7057523972294937e-06   1.6281887255180187e-06   1.6537135410133448e-06   1.5744517527284329e-06   1.6005347964486693e-06   1.5197651663157767e-06   1.5463432992412985e-06   1.4642597664583173e-06   1.4912686423048840e-06   1.4080683451044129e-06   1.4354425643703004e-06   1.3513253667722177e-06   1.3789986333787282e-06   1.2941666452755356e-06   1.3220719254205986e-06   1.2367290171543363e-06   1.2647986999951161e-06   1.1791500125991001e-06   1.2073160723739423e-06   1.1215675246614327e-06   1.1497616838587381e-06   1.0641194775505917e-06   1.0922733707298090e-06   1.0069434948158069e-06   1.0349888326837737e-06   9.5017656821537067e-07   9.7804530156012627e-07   8.9395472807208825e-07   9.2157921115898890e-07   8.3841271591089781e-07   8.6572586894330994e-07   7.8368366016858002e-07   8.1061913042227394e-07   7.2989875575903832e-07   7.5639107699858344e-07   6.7718694826754281e-07   7.0317169805970347e-07   6.2567462353613687e-07   6.5108857807928850e-07   5.7548530339020752e-07   6.0026658948615120e-07   5.2673934824043949e-07   5.5082759203877655e-07   4.7955366727822903e-07   5.0289013943590687e-07   4.3404143696439398e-07   4.5656919386750595e-07   3.9031182849073189e-07   4.1197584919786329e-07   3.4846974487253559e-07   3.6921706344771658e-07   3.0861556830646863e-07   3.2839540122207250e-07   2.7084491840423494e-07   2.8960878670555499e-07   2.3524842188538094e-07   2.5295026782168915e-07   2.0191149428528944e-07   2.1850779212427829e-07   1.7091413420554086e-07   1.8636399496441977e-07   1.4233073060313847e-07   1.5659600044211071e-07   1.1622988358392444e-07   1.2927523562473257e-07   9.2674239132949755e-08   1.0446725847973242e-07   7.1720338180486804e-08   8.2231599938094567e-08   5.3418480368434698e-08   6.2621620468812885e-08   3.7812602845619654e-08   4.5684381511488991e-08   2.4940174384926248e-08   3.1460532076983717e-08   1.4832105077607558e-08   1.9984210790026766e-08   7.5126718230149312e-09   1.1282963610403857e-08   2.9994597934835599e-09   5.3776774313127996e-09   1.3033200156990567e-09   2.2825297151860119e-09   2.4283431710495757e-09   2.0049542886564813e-09   6.3718496781474954e-09   4.5456233793345853e-09   1.3124396081466755e-08   9.8984459376638347e-09   2.2669797730787686e-08   1.8050582248123809e-08   3.4985167696580516e-08   2.8982474794368955e-08   5.0040971827531448e-08   4.2667895304040701e-08   6.7801099817260190e-08   5.9074007859656050e-08   8.8222952108618099e-08   7.8161447923041543e-08   1.1125754242600464e-07   9.9884417083205105e-08   1.3684961568789485e-07   1.2419079329793629e-07   1.6493778101533385e-07   1.5102225636454659e-07   1.9545465951487568e-07   1.8031442831518782e-07   2.2832704647960748e-07   2.1199702839908853e-07   2.6347608761648431e-07   2.4599404227761229e-07   3.0081746887456606e-07   2.8222390502216698e-07   3.4026161941601182e-07   3.2059969747594396e-07   3.8171392723961916e-07   3.6102935550271108e-07   4.2507496693647840e-07   4.0341589161879120e-07   4.7024073902804086e-07   4.4765762847407915e-07   5.1710292030807435e-07   4.9364844361590719e-07   5.6554912458530096e-07   5.4127802494795641e-07   6.1546317319573195e-07   5.9043213626424547e-07   6.6672537463265086e-07   6.4099289222027677e-07   7.1921281261853747e-07   6.9283904207424712e-07   7.7279964192331600e-07   7.4584626151605081e-07   8.2735739121475708e-07   7.9988745187750196e-07   8.8275527220979312e-07   8.5483304600156624e-07   9.3886049437956369e-07   9.1055132003337514e-07   9.9553858444891458e-07   9.6690871037724079e-07   1.0526537099181102e-06   1.0237701350576271e-06   1.1100690058254983e-06   1.0809993187046757e-06   1.1676469039620821e-06   1.1384591203811336e-06   1.2252494637419023e-06   1.1960118634589957e-06   1.2827387039300364e-06   1.2535196667466078e-06   1.3399769344255772e-06   1.3108447760702351e-06   1.3968270872980942e-06   1.3678498955033797e-06   1.4531530462786205e-06   1.4243985174495635e-06   1.5088199739063572e-06   1.4803552507740811e-06   1.5636946355427962e-06   1.5355861461981501e-06   1.6176457194674196e-06   1.5899590181624798e-06   1.6705441522820243e-06   1.6433437623857815e-06   1.7222634088596714e-06   1.6956126683472070e-06   1.7726798160877154e-06   1.7466407259383107e-06   1.8216728496690910e-06   1.7963059255382802e-06   1.8691254232618586e-06   1.8444895507885041e-06   1.9149241692546947e-06   1.8910764633516403e-06   1.9589597104952008e-06   1.9359553789657585e-06   2.0011269223084710e-06   1.9790191341174951e-06   2.0413251841637545e-06   2.0201649426830815e-06   2.0794586203705536e-06   2.0592946419054226e-06   2.1154363292060747e-06   2.0963149270961249e-06   2.1491725998979285e-06   2.1311375744737455e-06   2.1805871169058138e-06   2.1636796515664513e-06   2.2096051509587416e-06   2.1938637146215559e-06   2.2361577363124729e-06   2.2216179924698789e-06   2.2601818336787339e-06   2.2468765562812201e-06   2.2816204782338915e-06   2.2695794745991438e-06   2.3004229120010945e-06   2.2896729529317866e-06   2.3165446996396596e-06   2.3071094569104078e-06   2.3299478260638095e-06   2.3218478174126140e-06   2.3406007728022795e-06   2.3338533145262095e-06   2.3484785658296202e-06   2.3430977330206191e-06   2.3535627740572184e-06   2.3495593683643338e-06   2.3558413809734790e-06   2.3532229053218752e-06   2.3509280501998571e-06   2.3495390848811548e-06   2.3463947805984171e-06   2.3463947805984163e-06   2.3390761028728244e-06   2.3404646461049564e-06   2.3289888874090543e-06   2.3317622377540232e-06   2.3161564522393579e-06   2.3203075653890819e-06   2.3006086571055221e-06   2.3061271946279974e-06   2.2823818749681498e-06   2.2892542264534735e-06   2.2615189203765984e-06   2.2697282335859705e-06   2.2380689529839531e-06   2.2475951719180353e-06   2.2120873623843540e-06   2.2229072731728612e-06   2.1836356366886842e-06   2.1957229211869067e-06   2.1527812159449234e-06   2.1661065129051201e-06   2.1195973310556646e-06   2.1341283047225477e-06   2.0841628286857263e-06   2.0998642446486192e-06   2.0465619826166590e-06   2.0633957907334198e-06   2.0068842920093373e-06   2.0248097161986264e-06   1.9652242670564978e-06   1.9841979017415167e-06   1.9216812025353316e-06   1.9416571155025641e-06   1.8763589398000247e-06   1.8972887812246097e-06   1.8293656177805039e-06   1.8511987351521050e-06   1.7808134135851336e-06   1.8034969722556633e-06   1.7308182733270851e-06   1.7542973823882087e-06   1.6794996338221444e-06   1.7037174770060411e-06   1.6269801358267337e-06   1.6518781071135199e-06   1.5733853295059773e-06   1.5989031731085913e-06   1.5188433728421517e-06   1.5449193272294779e-06   1.4634847237095390e-06   1.4900556693174124e-06   1.4074418263586523e-06   1.4344434366336965e-06   1.3508487930667209e-06   1.3782156884737844e-06   1.2938410817215163e-06   1.3215069863431797e-06   1.2365551701173316e-06   1.2644530704663983e-06   1.1791282277493733e-06   1.2071905334085402e-06   1.1216977858979084e-06   1.1498564915992017e-06   1.0644014068002309e-06   1.0925882555498995e-06   1.0073763527081573e-06   1.0355229995632661e-06   9.5075925562925355e-07   9.7879743172914539e-07   8.9468578855202598e-07   9.2254746500794747e-07   8.3929033894502878e-07   8.6690789019021792e-07   7.8470568532233294e-07   8.1201205152764309e-07   7.3106267765275038e-07   7.5799152581636130e-07   6.7848992238689883e-07   7.0497580570498683e-07   6.2711347286110032e-07   6.5309198799680075e-07   5.7705652582766607e-07   6.0246446769583387e-07   5.2843912484060379e-07   5.5321463853559376e-07   4.8137787121772192e-07   5.0546060071491432e-07   4.3598564327277214e-07   4.5931687654488619e-07   3.9237132449824717e-07   4.1489413469571897e-07   3.5063954135346939e-07   3.7229892370634096e-07   3.1089041129185601e-07   3.3163341540359300e-07   2.7321930163574176e-07   2.9299515884706207e-07   2.3771659988085191e-07   2.5647684539644442e-07   2.0446749598371775e-07   2.2216608546762034e-07   1.7355177716011184e-07   1.9014519751550246e-07   1.4504363568750418e-07   1.6049100975401974e-07   1.1901149017702137e-07   1.3327467509344260e-07   9.5517820745531882e-08   1.0856149973786856e-07   7.4619018486494777e-08   8.6410785861189177e-08   5.6365249602233311e-08   6.6875688738163382e-08   4.0800334526293495e-08   5.0003088676751442e-08   2.7961642327173935e-08   3.5833478061680477e-08   1.7880000648585475e-08   2.4400863779829466e-08   1.0579621403643628e-08   1.5732685265086136e-08   6.0780424023957121e-09   9.8497483593885567e-09   4.3860850534390127e-09   6.7661751502359256e-09   5.5078282418375085e-09   6.4893699053440134e-09   9.4405984465042224e-09   9.0200011869259814e-09   1.6174976120656561e-08   1.4352000188845302e-08   2.5694818320272059e-08   2.2472575300661821e-08   3.7977297525520206e-08   3.3362242863292217e-08   5.2992956561880069e-08   4.6994874042388134e-08   7.0705779488065007e-08   6.3337757705905744e-08   9.1073278279669104e-08   8.2351679154551612e-08   1.1404659509954351e-07   1.0399101451459208e-07   1.3957061990739383e-07   1.2820384056564244e-07   1.6758412312579619e-07   1.5493205973824816e-07   1.9801990304094074e-07   1.8411153997911047e-07   2.3080494758330048e-07   2.1567226914684944e-07   2.6586061009774439e-07   2.4953852356528881e-07   3.0310279867724339e-07   2.8562905032782493e-07   3.4244217860570061e-07   3.2385726291192389e-07   3.8378438741850955e-07   3.6413144963259881e-07   4.2703026206287608e-07   4.0635499443025583e-07   4.7207607761016954e-07   4.5042660946181583e-07   5.1881379694187510e-07   4.9624057893159884e-07   5.6713133080892089e-07   5.4368701357398572e-07   6.1691280763361363e-07   5.9265211517483872e-07   6.6803885240570010e-07   6.4301845048971754e-07   7.2038687399610402e-07   6.9466523390142906e-07   7.7383136019732336e-07   7.4746861813137748e-07   8.2824417977612742e-07   8.0130199230417629e-07   8.8349489080933467e-07   8.5603628664522953e-07   9.3945105455966788e-07   9.1154028307576327e-07   9.9597855413074250e-07   9.6768093095453470e-07   1.0529419171349027e-06   1.0243236672055877e-06   1.1102046415913732e-06   1.0813327400555907e-06   1.1676295242695327e-06   1.1385715356012220e-06   1.2250789906840110e-06   1.1959029064182280e-06   1.2824154259423457e-06   1.2531895014148599e-06   1.3395015056496197e-06   1.3102940961374334e-06   1.3962005260651970e-06   1.3670799227249431e-06   1.4523767327196838e-06   1.4234109987200622e-06   1.5078956466913268e-06   1.4791524539370306e-06   1.5626243877595503e-06   1.5341708546015861e-06   1.6164319936481879e-06   1.5883345239718213e-06   1.6691897345904534e-06   1.6415138586732522e-06   1.7207714224515240e-06   1.6935816399737842e-06   1.7710537136629485e-06   1.7444133392519609e-06   1.8199164052313770e-06   1.7938874169136864e-06   1.8672427231076968e-06   1.8418856140344448e-06   1.9129196022127269e-06   1.8882932360200753e-06   1.9568379574414452e-06   1.9329994275926500e-06   1.9988929449824225e-06   1.9758974384350736e-06   2.0389842133148473e-06   2.0168848788419356e-06   2.0770161432654940e-06   2.0558639647488629e-06   2.1128980765300604e-06   2.0927417515339690e-06   2.1465445320871087e-06   2.1274303560050260e-06   2.1778754099512298e-06   2.1598471660061404e-06   2.2068161817292534e-06   2.1899150370938278e-06   2.2332980674537278e-06   2.2175624757410997e-06   2.2572581981648692e-06   2.2427238085253016e-06   2.2786397636827590e-06   2.2653393367247262e-06   2.2973921449409029e-06   2.2853554756788288e-06   2.3134710300838085e-06   2.3027248780955451e-06   2.3268385131657010e-06   2.3174065401269330e-06   2.3374631734721440e-06   2.3293658882188776e-06   2.3453201315489812e-06   2.3385748428225892e-06   2.3503910733116328e-06   2.3450118504216538e-06   2.3526642255186650e-06   2.3486618676095519e-06   2.3449708848978158e-06   2.3421966961729744e-06   2.3404646461049649e-06   2.3390761028728248e-06   2.3331862682614974e-06   2.3331862682614974e-06   2.3231526803927242e-06   2.3245408103020578e-06   2.3103872107297472e-06   2.3131597436747586e-06   2.2949196616711613e-06   2.2990695631398591e-06   2.2767862901210855e-06   2.2823032320368133e-06   2.2560297439048735e-06   2.2629001267738203e-06   2.2326989714719795e-06   2.2409059545313999e-06   2.2068491112705018e-06   2.2163726505554793e-06   2.1785413636400357e-06   2.1893582578686973e-06   2.1478428467406928e-06   2.1599267909059037e-06   2.1148264374712770e-06   2.1281480840033123e-06   2.0795705980709494e-06   2.0940976254224028e-06   2.0421591889877297e-06   2.0578563774724261e-06   2.0026812685536090e-06   2.0195105832549386e-06   1.9612308800019560e-06   1.9791515605474764e-06   1.9179068263656187e-06   1.9368754833510568e-06   1.8728124338196363e-06   1.8927831516461424e-06   1.8260553040443911e-06   1.8469797499198348e-06   1.7777470562166960e-06   1.7995745950565460e-06   1.7280030592529253e-06   1.7506808742012833e-06   1.6769421549524250e-06   1.7004153732306721e-06   1.6246863727125696e-06   1.6488981964907112e-06   1.5713606365035734e-06   1.5962524784763261e-06   1.5170924648121945e-06   1.5426040881510368e-06   1.4620116642770387e-06   1.4880813266202395e-06   1.4062500177603313e-06   1.4328146188893435e-06   1.3499409676034759e-06   1.3769362004506007e-06   1.2932192948357349e-06   1.3205797994551809e-06   1.2362207951098863e-06   1.2638803152400844e-06   1.1790819521463531e-06   1.2069734939842344e-06   1.1219396094761157e-06   1.1499956022782026e-06   1.0649306412737329e-06   1.0930830993958714e-06   1.0081916230768222e-06   1.0363723090597920e-06   9.5185850318536159e-07   9.7999909149180271e-07   8.9606627553786099e-07   9.2409851654281396e-07   8.4094865484884937e-07   8.6880453868915468e-07   7.8663775479793718e-07   8.1424967468256558e-07   7.3326377004509297e-07   7.6056468462996950e-07   6.8095466283762071e-07   7.0787825727485186e-07   6.2983585497022862e-07   6.5631670023968320e-07   5.8002992583917415e-07   6.0600363597703890e-07   5.3165631731944891e-07   5.5705970416507960e-07   4.8483104617916003e-07   5.0960227126330341e-07   4.3966642472359639e-07   4.6374514793292387e-07   3.9627079034590792e-07   4.1959831500184696e-07   3.5474824463414255e-07   3.7726765863732301e-07   3.1519840266821624e-07   3.3685471536538890e-07   2.7771615310858321e-07   2.9845642755185170e-07   2.4239142965841759e-07   2.6216490993666468e-07   2.0930899445039809e-07   2.2806722778413747e-07   1.7854823387972801e-07   1.9624518718580164e-07   1.5018296737742489e-07   1.6677513802031710e-07   1.2428126958703081e-07   1.3972779004858954e-07   1.0090530636986663e-07   1.1516804258592126e-07   8.0111185039383357e-08   9.3154828163895212e-08   6.1948819182956602e-08   7.3740970558387911e-08   4.6461808398445663e-08   5.6973057527524184e-08   3.3687333236938713e-08   4.2891328565649603e-08   2.3656065603003471e-08   3.1529577945221277e-08   1.6392094830696096e-08   2.2915073280375665e-08   1.1912869612735680e-08   1.7068489808602961e-08   1.0229155923639532e-08   1.4003860549414557e-08   1.1345011037818006e-08   1.3728542460483588e-08   1.5257773705588570e-08   1.6243198672530917e-08   2.1958070511056872e-08   2.1541796846206015e-08   3.1429838396011460e-08   2.9611623655046904e-08   4.3650363295739446e-08   4.0433315359001792e-08   5.8590334793562806e-08   5.3980904395421762e-08   7.6213916661921583e-08   7.0221881874694049e-08   9.6478833119888901e-08   8.9117275829663486e-08   1.1933647059854759e-07   1.1062174502993470e-07   1.4473199476913909e-07   1.3468368813500236e-07   1.7260448255096455e-07   1.6124536792218152e-07   2.0288706878034630e-07   1.9024305028961792e-07   2.3550710718683732e-07   2.2160715769917270e-07   2.7038634528772201e-07   2.5526243668789549e-07   3.0744111277924359e-07   2.9112813904516714e-07   3.4658252296853296e-07   3.2911821621658120e-07   3.8771668676116972e-07   3.6914152646567321e-07   4.3074493868650498e-07   4.1110205429448160e-07   4.7556407441669951e-07   4.5489914159134984e-07   5.2206659920420314e-07   5.0042772994949747e-07   5.7014098663828811e-07   5.4757861357003569e-07   6.1967194709771781e-07   5.9623870214055474e-07   6.7054070524742609e-07   6.4629129305110778e-07   7.2262528591381440e-07   6.9761635229582088e-07   7.7580080764450961e-07   7.5009080337577750e-07   8.2993978324579084e-07   8.0358882350942258e-07   8.8491242657102553e-07   8.5798214643576649e-07   9.4058696481972490e-07   9.1314037107354819e-07   9.9682995559205852e-07   9.6893127529934250e-07   1.0535066079352303e-06   1.0252211340792164e-06   1.1104811066028491e-06   1.0818750411898181e-06   1.1676169387466670e-06   1.1387572337507054e-06   1.2247772222517381e-06   1.1957314187834514e-06   1.2818250349185178e-06   1.2526611010090587e-06   1.3386237437012902e-06   1.3094099110918376e-06   1.3950373332023521e-06   1.3658419335360093e-06   1.4509307326329009e-06   1.4218220334436075e-06   1.5061701404454976e-06   1.4772161813425814e-06   1.5606233458588038e-06   1.5318917753009563e-06   1.6141600464899612e-06   1.5857179595476648e-06   1.6666521613349402e-06   1.6385659388294835e-06   1.7179741383310471e-06   1.6903092877427901e-06   1.7680032557640096e-06   1.7408242542938571e-06   1.8166199167847014e-06   1.7899900569477400e-06   1.8637079363237928e-06   1.8376891744510606e-06   1.9091548197091283e-06   1.8838076277216351e-06   1.9528520323050191e-06   1.9282352531216021e-06   1.9946952595212281e-06   1.9708659664480559e-06   2.0345846565536023e-06   2.0115980169967201e-06   2.0724250872450190e-06   2.0503342310768024e-06   2.1081263514778373e-06   2.0869822443745284e-06   2.1416034005310350e-06   2.1214547225888859e-06   2.1727765398583581e-06   2.1536695697826833e-06   2.2015716187645933e-06   2.1835501239114665e-06   2.2279202064728152e-06   2.2110253390101557e-06   2.2517597540853137e-06   2.2360299535248614e-06   2.2730337419339796e-06   2.2585046442708963e-06   2.2916918117888198e-06   2.2783961654695417e-06   2.3076898833102366e-06   2.2956574722357096e-06   2.3209902539569867e-06   2.3102478277148207e-06   2.3315616812029669e-06   2.3221328927170554e-06   2.3393794453225500e-06   2.3312847961212086e-06   2.3444253909546586e-06   2.3376821843159092e-06   2.3466879529199754e-06   2.3413102553117454e-06   2.3362317132832672e-06   2.3320793523269866e-06   2.3317622377540113e-06   2.3289888874090603e-06   2.3245408103020515e-06   2.3231526803927149e-06   2.3145842250885705e-06   2.3145842250885650e-06   2.3019156813823849e-06   2.3033034097727228e-06   2.2865648071794212e-06   2.2893365492215383e-06   2.2685676307319909e-06   2.2727163644473718e-06   2.2479665168139029e-06   2.2534819270826169e-06   2.2248100780481833e-06   2.2316785787660648e-06   2.1991530662669906e-06   2.2073578304951627e-06   2.1710562464079778e-06   2.1805772444366929e-06   2.1405862543748415e-06   2.1514002996030843e-06   2.1078154398039090e-06   2.1198962423210555e-06   2.0728216944605318e-06   2.0861399221982705e-06   2.0356882668