<?xml version="1.0"?>
<VTKFile type="UnstructuredGrid"  version="0.1"  >
<UnstructuredGrid>
<Piece  NumberOfPoints="16641" NumberOfCells="32768">
<Points>
<DataArray  type="Float64"  NumberOfComponents="3"  format="ascii">0 0 0  0.0078125 0 0  0.015625 0 0  0.0234375 0 0  0.03125 0 0  0.0390625 0 0  0.046875 0 0  0.0546875 0 0  0.0625 0 0  0.0703125 0 0  0.078125 0 0  0.0859375 0 0  0.09375 0 0  0.1015625 0 0  0.109375 0 0  0.1171875 0 0  0.125 0 0  0.1328125 0 0  0.140625 0 0  0.1484375 0 0  0.15625 0 0  0.1640625 0 0  0.171875 0 0  0.1796875 0 0  0.1875 0 0  0.1953125 0 0  0.203125 0 0  0.2109375 0 0  0.21875 0 0  0.2265625 0 0  0.234375 0 0  0.2421875 0 0  0.25 0 0  0.2578125 0 0  0.265625 0 0  0.2734375 0 0  0.28125 0 0  0.2890625 0 0  0.296875 0 0  0.3046875 0 0  0.3125 0 0  0.3203125 0 0  0.328125 0 0  0.3359375 0 0  0.34375 0 0  0.3515625 0 0  0.359375 0 0  0.3671875 0 0  0.375 0 0  0.3828125 0 0  0.390625 0 0  0.3984375 0 0  0.40625 0 0  0.4140625 0 0  0.421875 0 0  0.4296875 0 0  0.4375 0 0  0.4453125 0 0  0.453125 0 0  0.4609375 0 0  0.46875 0 0  0.4765625 0 0  0.484375 0 0  0.4921875 0 0  0.5 0 0  0.5078125 0 0  0.515625 0 0  0.5234375 0 0  0.53125 0 0  0.5390625 0 0  0.546875 0 0  0.5546875 0 0  0.5625 0 0  0.5703125 0 0  0.578125 0 0  0.5859375 0 0  0.59375 0 0  0.6015625 0 0  0.609375 0 0  0.6171875 0 0  0.625 0 0  0.6328125 0 0  0.640625 0 0  0.6484375 0 0  0.65625 0 0  0.6640625 0 0  0.671875 0 0  0.6796875 0 0  0.6875 0 0  0.6953125 0 0  0.703125 0 0  0.7109375 0 0  0.71875 0 0  0.7265625 0 0  0.734375 0 0  0.7421875 0 0  0.75 0 0  0.7578125 0 0  0.765625 0 0  0.7734375 0 0  0.78125 0 0  0.7890625 0 0  0.796875 0 0  0.8046875 0 0  0.8125 0 0  0.8203125 0 0  0.828125 0 0  0.8359375 0 0  0.84375 0 0  0.8515625 0 0  0.859375 0 0  0.8671875 0 0  0.875 0 0  0.8828125 0 0  0.890625 0 0  0.8984375 0 0  0.90625 0 0  0.9140625 0 0  0.921875 0 0  0.9296875 0 0  0.9375 0 0  0.9453125 0 0  0.953125 0 0  0.9609375 0 0  0.96875 0 0  0.9765625 0 0  0.984375 0 0  0.9921875 0 0  1 0 0  0 0.0078125 0  0.0078125 0.0078125 0  0.015625 0.0078125 0  0.0234375 0.0078125 0  0.03125 0.0078125 0  0.0390625 0.0078125 0  0.046875 0.0078125 0  0.0546875 0.0078125 0  0.0625 0.0078125 0  0.0703125 0.0078125 0  0.078125 0.0078125 0  0.0859375 0.0078125 0  0.09375 0.0078125 0  0.1015625 0.0078125 0  0.109375 0.0078125 0  0.1171875 0.0078125 0  0.125 0.0078125 0  0.1328125 0.0078125 0  0.140625 0.0078125 0  0.1484375 0.0078125 0  0.15625 0.0078125 0  0.1640625 0.0078125 0  0.171875 0.0078125 0  0.1796875 0.0078125 0  0.1875 0.0078125 0  0.1953125 0.0078125 0  0.203125 0.0078125 0  0.2109375 0.0078125 0  0.21875 0.0078125 0  0.2265625 0.0078125 0  0.234375 0.0078125 0  0.2421875 0.0078125 0  0.25 0.0078125 0  0.2578125 0.0078125 0  0.265625 0.0078125 0  0.2734375 0.0078125 0  0.28125 0.0078125 0  0.2890625 0.0078125 0  0.296875 0.0078125 0  0.3046875 0.0078125 0  0.3125 0.0078125 0  0.3203125 0.0078125 0  0.328125 0.0078125 0  0.3359375 0.0078125 0  0.34375 0.0078125 0  0.3515625 0.0078125 0  0.359375 0.0078125 0  0.3671875 0.0078125 0  0.375 0.0078125 0  0.3828125 0.0078125 0  0.390625 0.0078125 0  0.3984375 0.0078125 0  0.40625 0.0078125 0  0.4140625 0.0078125 0  0.421875 0.0078125 0  0.4296875 0.0078125 0  0.4375 0.0078125 0  0.4453125 0.0078125 0  0.453125 0.0078125 0  0.4609375 0.0078125 0  0.46875 0.0078125 0  0.4765625 0.0078125 0  0.484375 0.0078125 0  0.4921875 0.0078125 0  0.5 0.0078125 0  0.5078125 0.0078125 0  0.515625 0.0078125 0  0.5234375 0.0078125 0  0.53125 0.0078125 0  0.5390625 0.0078125 0  0.546875 0.0078125 0  0.5546875 0.0078125 0  0.5625 0.0078125 0  0.5703125 0.0078125 0  0.578125 0.0078125 0  0.5859375 0.0078125 0  0.59375 0.0078125 0  0.6015625 0.0078125 0  0.609375 0.0078125 0  0.6171875 0.0078125 0  0.625 0.0078125 0  0.6328125 0.0078125 0  0.640625 0.0078125 0  0.6484375 0.0078125 0  0.65625 0.0078125 0  0.6640625 0.0078125 0  0.671875 0.0078125 0  0.6796875 0.0078125 0  0.6875 0.0078125 0  0.6953125 0.0078125 0  0.703125 0.0078125 0  0.7109375 0.0078125 0  0.71875 0.0078125 0  0.7265625 0.0078125 0  0.734375 0.0078125 0  0.7421875 0.0078125 0  0.75 0.0078125 0  0.7578125 0.0078125 0  0.765625 0.0078125 0  0.7734375 0.0078125 0  0.78125 0.0078125 0  0.7890625 0.0078125 0  0.796875 0.0078125 0  0.8046875 0.0078125 0  0.8125 0.0078125 0  0.8203125 0.0078125 0  0.828125 0.0078125 0  0.8359375 0.0078125 0  0.84375 0.0078125 0  0.8515625 0.0078125 0  0.859375 0.0078125 0  0.8671875 0.0078125 0  0.875 0.0078125 0  0.8828125 0.0078125 0  0.890625 0.0078125 0  0.8984375 0.0078125 0  0.90625 0.0078125 0  0.9140625 0.0078125 0  0.921875 0.0078125 0  0.9296875 0.0078125 0  0.9375 0.0078125 0  0.9453125 0.0078125 0  0.953125 0.0078125 0  0.9609375 0.0078125 0  0.96875 0.0078125 0  0.9765625 0.0078125 0  0.984375 0.0078125 0  0.9921875 0.0078125 0  1 0.0078125 0  0 0.015625 0  0.0078125 0.015625 0  0.015625 0.015625 0  0.0234375 0.015625 0  0.03125 0.015625 0  0.0390625 0.015625 0  0.046875 0.015625 0  0.0546875 0.015625 0  0.0625 0.015625 0  0.0703125 0.015625 0  0.078125 0.015625 0  0.0859375 0.015625 0  0.09375 0.015625 0  0.1015625 0.015625 0  0.109375 0.015625 0  0.1171875 0.015625 0  0.125 0.015625 0  0.1328125 0.015625 0  0.140625 0.015625 0  0.1484375 0.015625 0  0.15625 0.015625 0  0.1640625 0.015625 0  0.171875 0.015625 0  0.1796875 0.015625 0  0.1875 0.015625 0  0.1953125 0.015625 0  0.203125 0.015625 0  0.2109375 0.015625 0  0.21875 0.015625 0  0.2265625 0.015625 0  0.234375 0.015625 0  0.2421875 0.015625 0  0.25 0.015625 0  0.2578125 0.015625 0  0.265625 0.015625 0  0.2734375 0.015625 0  0.28125 0.015625 0  0.2890625 0.015625 0  0.296875 0.015625 0  0.3046875 0.015625 0  0.3125 0.015625 0  0.3203125 0.015625 0  0.328125 0.015625 0  0.3359375 0.015625 0  0.34375 0.015625 0  0.3515625 0.015625 0  0.359375 0.015625 0  0.3671875 0.015625 0  0.375 0.015625 0  0.3828125 0.015625 0  0.390625 0.015625 0  0.3984375 0.015625 0  0.40625 0.015625 0  0.4140625 0.015625 0  0.421875 0.015625 0  0.4296875 0.015625 0  0.4375 0.015625 0  0.4453125 0.015625 0  0.453125 0.015625 0  0.4609375 0.015625 0  0.46875 0.015625 0  0.4765625 0.015625 0  0.484375 0.015625 0  0.4921875 0.015625 0  0.5 0.015625 0  0.5078125 0.015625 0  0.515625 0.015625 0  0.5234375 0.015625 0  0.53125 0.015625 0  0.5390625 0.015625 0  0.546875 0.015625 0  0.5546875 0.015625 0  0.5625 0.015625 0  0.5703125 0.015625 0  0.578125 0.015625 0  0.5859375 0.015625 0  0.59375 0.015625 0  0.6015625 0.015625 0  0.609375 0.015625 0  0.6171875 0.015625 0  0.625 0.015625 0  0.6328125 0.015625 0  0.640625 0.015625 0  0.6484375 0.015625 0  0.65625 0.015625 0  0.6640625 0.015625 0  0.671875 0.015625 0  0.6796875 0.015625 0  0.6875 0.015625 0  0.6953125 0.015625 0  0.703125 0.015625 0  0.7109375 0.015625 0  0.71875 0.015625 0  0.7265625 0.015625 0  0.734375 0.015625 0  0.7421875 0.015625 0  0.75 0.015625 0  0.7578125 0.015625 0  0.765625 0.015625 0  0.7734375 0.015625 0  0.78125 0.015625 0  0.7890625 0.015625 0  0.796875 0.015625 0  0.8046875 0.015625 0  0.8125 0.015625 0  0.8203125 0.015625 0  0.828125 0.015625 0  0.8359375 0.015625 0  0.84375 0.015625 0  0.8515625 0.015625 0  0.859375 0.015625 0  0.8671875 0.015625 0  0.875 0.015625 0  0.8828125 0.015625 0  0.890625 0.015625 0  0.8984375 0.015625 0  0.90625 0.015625 0  0.9140625 0.015625 0  0.921875 0.015625 0  0.9296875 0.015625 0  0.9375 0.015625 0  0.9453125 0.015625 0  0.953125 0.015625 0  0.9609375 0.015625 0  0.96875 0.015625 0  0.9765625 0.015625 0  0.984375 0.015625 0  0.9921875 0.015625 0  1 0.015625 0  0 0.0234375 0  0.0078125 0.0234375 0  0.015625 0.0234375 0  0.0234375 0.0234375 0  0.03125 0.0234375 0  0.0390625 0.0234375 0  0.046875 0.0234375 0  0.0546875 0.0234375 0  0.0625 0.0234375 0  0.0703125 0.0234375 0  0.078125 0.0234375 0  0.0859375 0.0234375 0  0.09375 0.0234375 0  0.1015625 0.0234375 0  0.109375 0.0234375 0  0.1171875 0.0234375 0  0.125 0.0234375 0  0.1328125 0.0234375 0  0.140625 0.0234375 0  0.1484375 0.0234375 0  0.15625 0.0234375 0  0.1640625 0.0234375 0  0.171875 0.0234375 0  0.1796875 0.0234375 0  0.1875 0.0234375 0  0.1953125 0.0234375 0  0.203125 0.0234375 0  0.2109375 0.0234375 0  0.21875 0.0234375 0  0.2265625 0.0234375 0  0.234375 0.0234375 0  0.2421875 0.0234375 0  0.25 0.0234375 0  0.2578125 0.0234375 0  0.265625 0.0234375 0  0.2734375 0.0234375 0  0.28125 0.0234375 0  0.2890625 0.0234375 0  0.296875 0.0234375 0  0.3046875 0.0234375 0  0.3125 0.0234375 0  0.3203125 0.0234375 0  0.328125 0.0234375 0  0.3359375 0.0234375 0  0.34375 0.0234375 0  0.3515625 0.0234375 0  0.359375 0.0234375 0  0.3671875 0.0234375 0  0.375 0.0234375 0  0.3828125 0.0234375 0  0.390625 0.0234375 0  0.3984375 0.0234375 0  0.40625 0.0234375 0  0.4140625 0.0234375 0  0.421875 0.0234375 0  0.4296875 0.0234375 0  0.4375 0.0234375 0  0.4453125 0.0234375 0  0.453125 0.0234375 0  0.4609375 0.0234375 0  0.46875 0.0234375 0  0.4765625 0.0234375 0  0.484375 0.0234375 0  0.4921875 0.0234375 0  0.5 0.0234375 0  0.5078125 0.0234375 0  0.515625 0.0234375 0  0.5234375 0.0234375 0  0.53125 0.0234375 0  0.5390625 0.0234375 0  0.546875 0.0234375 0  0.5546875 0.0234375 0  0.5625 0.0234375 0  0.5703125 0.0234375 0  0.578125 0.0234375 0  0.5859375 0.0234375 0  0.59375 0.0234375 0  0.6015625 0.0234375 0  0.609375 0.0234375 0  0.6171875 0.0234375 0  0.625 0.0234375 0  0.6328125 0.0234375 0  0.640625 0.0234375 0  0.6484375 0.0234375 0  0.65625 0.0234375 0  0.6640625 0.0234375 0  0.671875 0.0234375 0  0.6796875 0.0234375 0  0.6875 0.0234375 0  0.6953125 0.0234375 0  0.703125 0.0234375 0  0.7109375 0.0234375 0  0.71875 0.0234375 0  0.7265625 0.0234375 0  0.734375 0.0234375 0  0.7421875 0.0234375 0  0.75 0.0234375 0  0.7578125 0.0234375 0  0.765625 0.0234375 0  0.7734375 0.0234375 0  0.78125 0.0234375 0  0.7890625 0.0234375 0  0.796875 0.0234375 0  0.8046875 0.0234375 0  0.8125 0.0234375 0  0.8203125 0.0234375 0  0.828125 0.0234375 0  0.8359375 0.0234375 0  0.84375 0.0234375 0  0.8515625 0.0234375 0  0.859375 0.0234375 0  0.8671
[...]
<CellData  Scalars="f_6337"> 
<DataArray  type="Float64"  Name="f_6337"  format="ascii">4.9408351343341707e-11   4.9408351343334844e-11   7.9487917686891021e-11   1.0266379114692373e-10   1.1538227790395843e-10   1.5432231273788937e-10   1.5699111613954758e-10   2.1431677281753539e-10   2.0416328855395860e-10   2.8238683756752019e-10   2.5672823134163316e-10   3.5826599269329301e-10   3.1450321049780384e-10   4.4167794967736936e-10   3.7729694379109799e-10   5.3233775472763907e-10   4.4491135193049400e-10   6.2995286605613017e-10   5.1714233675115903e-10   7.3422360085421182e-10   5.9378011857669101e-10   8.4484322428373681e-10   6.7460940300395109e-10   9.6149792347823210e-10   7.5940950278711033e-10   1.0838667931521064e-09   8.4795446998353281e-10   1.2116218860591248e-09   9.4001326078831304e-10   1.3444283454250228e-09   1.0353499405513871e-09   1.4819446203483279e-09   1.1337239298282554e-09   1.6238227587275698e-09   1.2348902895040112e-09   1.7697087701723826e-09   1.3386000418679158e-09   1.9192430511075471e-09   1.4446005243007781e-09   2.0720608646861714e-09   1.5526357722038239e-09   2.2277928689759644e-09   1.6624469280082156e-09   2.3860656873938577e-09   1.7737726733107150e-09   2.5465025161576285e-09   1.8863496813930218e-09   2.7087237639964139e-09   1.9999130875487345e-09   2.8723477198023490e-09   2.1141969748376611e-09   3.0369912442975987e-09   2.2289348729914731e-09   3.2022704820971233e-09   2.3438602683370204e-09   3.3678015907543351e-09   2.4587071226783212e-09   3.5332014836211624e-09   2.5732103991696151e-09   3.6980885834682722e-09   2.6871065932908832e-09   3.8620835840071563e-09   2.8001342670690329e-09   4.0248102165067071e-09   2.9120345847867706e-09   4.1858960188659476e-09   3.0225518483881602e-09   4.3449731045274812e-09   3.1314340309981342e-09   4.5016789287289494e-09   3.2384333067798028e-09   4.6556570497434254e-09   3.3433065755837015e-09   4.8065578825753785e-09   3.4458159808518028e-09   4.9540394429714854e-09   3.5457294191806836e-09   5.0977680794750501e-09   3.6428210401254247e-09   5.2374191913187904e-09   3.7368717347314994e-09   5.3726779301314777e-09   3.8276696115001582e-09   5.5032398833097089e-09   3.9150104582798892e-09   5.6288117372989410e-09   3.9986981889537760e-09   5.7491119185720113e-09   4.0785452735208339e-09   5.8638712108795731e-09   4.1543731504386392e-09   5.9728333466780217e-09   4.2260126200749190e-09   6.0757555712792973e-09   4.2933042181274052e-09   6.1724091780985838e-09   4.3560985679857738e-09   6.2625800134167724e-09   4.4142567111110322e-09   6.3460689493122347e-09   4.4676504143793050e-09   6.4226923235167781e-09   4.5161624536716763e-09   6.4922823447052196e-09   4.5596868728236579e-09   6.5546874623831720e-09   4.5981292172398881e-09   6.6097727000874210e-09   4.6314067414600335e-09   6.6574199510766851e-09   4.6594485901861171e-09   6.6975282355998890e-09   4.6821959521184780e-09   6.7300139190433446e-09   4.6996021862274681e-09   6.7548108902151830e-09   4.7116329200603705e-09   6.7718706993434249e-09   4.7182661197662352e-09   6.7811626552747779e-09   4.7194921315780902e-09   6.7826738815155934e-09   4.7153136946268286e-09   6.7764093309348513e-09   4.7057459249851485e-09   6.7623917590042791e-09   4.6908162708874600e-09   6.7406616555216021e-09   4.6705644392387196e-09   6.7112771349188385e-09   4.6450422934962972e-09   6.6743137854144680e-09   4.6143137231128291e-09   6.6298644771669914e-09   4.5784544849221574e-09   6.5780391299631076e-09   4.5375520166193557e-09   6.5189644409366844e-09   4.4917052229586553e-09   6.4527835727944999e-09   4.4410242349894629e-09   6.3796558034456152e-09   4.3856301429854843e-09   6.2997561376983777e-09   4.3256547036305926e-09   6.2132748819932474e-09   4.2612400221393233e-09   6.1204171831120550e-09   4.1925382100982126e-09   6.0214025320068107e-09   4.1197110198155214e-09   5.9164642338960150e-09   4.0429294559649202e-09   5.8058488458577713e-09   3.9623733656044315e-09   5.6898155832769201e-09   3.8782310073392055e-09   5.5686356965831102e-09   3.7906986008447645e-09   5.4425918196994189e-09   3.6999798576369221e-09   5.3119772918442168e-09   3.6062854943291940e-09   5.1770954541924860e-09   3.5098327294975569e-09   5.0382589232079087e-09   3.4108447652705102e-09   4.8957888422787969e-09   3.3095502549668139e-09   4.7500141134423044e-09   3.2061827579406736e-09   4.6012706111020430e-09   3.1009801830110108e-09   4.4499003795218244e-09   2.9941842216367504e-09   4.2962508160748810e-09   2.8860397722688031e-09   4.1406738420554562e-09   2.7767943571551326e-09   3.9835250631405526e-09   2.6666975328719259e-09   3.8251629213495508e-09   2.5560002960401652e-09   3.6659478405196701e-09   2.4449544854093894e-09   3.5062413672580937e-09   2.3338121816700301e-09   3.3464053092997765e-09   2.2228251063528227e-09   3.1868008731892231e-09   2.1122440209285415e-09   3.0277878033056926e-09   2.0023181274505271e-09   2.8697235238774392e-09   1.8932944718442034e-09   2.7129622860126918e-09   1.7854173509815046e-09   2.5578543213618747e-09   1.6789277245480358e-09   2.4047450040883708e-09   1.5740626326544889e-09   2.2539740227412442e-09   1.4710546199724910e-09   2.1058745634112423e-09   1.3701311671418140e-09   1.9607725054369813e-09   1.2715141298341936e-09   1.8189856308183040e-09   1.1754191858266620e-09   1.6808228480554626e-09   1.0820552900057588e-09   1.5465834310813528e-09   9.9162413695283616e-10   1.4165562733934734e-09   9.0431963024192866e-10   1.2910191571294313e-09   8.2032735697478680e-10   1.1702380361806230e-09   7.3982406530410742e-10   1.0544663316481350e-09   6.6297714151608454e-10   9.4394423691201588e-10   5.8994408179715825e-10   8.3889802810464734e-10   5.2087195161551071e-10   7.3953937383476175e-10   4.5589682259157324e-10   6.4606463519534926e-10   3.9514317219197279e-10   5.5865414302752433e-10   3.3872322470915155e-10   4.7747143346040625e-10   2.8673620128594182e-10   4.0266241364209848e-10   2.3926742947919956e-10   3.3435441538594532e-10   1.9638723389373392e-10   2.7265507154423213e-10   1.5814947866003537e-10   2.1765091155427911e-10   1.2458953867096053e-10   1.6940550582027975e-10   9.5721291867066650e-11   1.2795686676359912e-10   7.1532332772796951e-11   9.3313579987385803e-11   5.1975691202671540e-11   6.5448657403918908e-11   3.6953920678687631e-11   4.4289029653952331e-11   2.6283964598390290e-11   2.9695939733956369e-11   1.9602625029627695e-11   2.1424160118081900e-11   1.2826068019935277e-11   1.9026644017605301e-11   1.0266379114689356e-10   7.9487917686819961e-11   1.4985452102703017e-10   1.4985452102696932e-10   2.0607112066781922e-10   2.0551907720674550e-10   2.7070123235520955e-10   2.6986442119617718e-10   3.4334585784442422e-10   3.4234225443976845e-10   4.2366824500191584e-10   4.2255183312576451e-10   5.1135529132816264e-10   5.1014907450256724e-10   6.0610166390191079e-10   6.0481326887545798e-10   7.0760242326953368e-10   7.0623156887501846e-10   8.1554945683732581e-10   8.1409161803802003e-10   9.2962967680521428e-10   9.2807796176901402e-10   1.0495240915039834e-09   1.0478702554543331e-09   1.1749073541698818e-09   1.1731423791521064e-09   1.3054476021051179e-09   1.3035620487063855e-09   1.4408064900077246e-09   1.4387907239929303e-09   1.5806393633355854e-09   1.5784837107421182e-09   1.7245955385344552e-09   1.7222903981538549e-09   1.8723186682120554e-09   1.8698545976133895e-09   2.0234471757471625e-09   2.0208149601788000e-09   2.1776147479671116e-09   2.1748054575875731e-09   2.3344508768864381e-09   2.3314559157257259e-09   2.4935814433891552e-09   2.4903925920504491e-09   2.6546293368576624e-09   2.6512387902751205e-09   2.8172151056179365e-09   2.8136155067081695e-09   2.9809576337243910e-09   2.9771421034654771e-09   3.1454748400785726e-09   3.1414370043866167e-09   3.3103843961931263e-09   3.3061184098343483e-09   3.4753044592464010e-09   3.4708050269596943e-09   3.6398544172347388e-09   3.6351168122037504e-09   3.8036556432583878e-09   3.7986757229988419e-09   3.9663322560595519e-09   3.9611064758382767e-09   4.1275118841175488e-09   4.1220373079321219e-09   4.2868264306318909e-09   4.2811007398326204e-09   4.4439128368743008e-09   4.4379343365001944e-09   4.5984138415009389e-09   4.5921814642977555e-09   4.7499787332974601e-09   4.7434920416165910e-09   4.8982640951655099e-09   4.8915232806670614e-09   5.0429345370926314e-09   5.0359404183793639e-09   5.1836634158406813e-09   5.1764174340784931e-09   5.3201335393437881e-09   5.3126377518938222e-09   5.4520378536224450e-09   5.4442949258278820e-09   5.5790801104552111e-09   5.5710933054993315e-09   5.7009755135681738e-09   5.6927486807215229e-09   5.8174513419098717e-09   5.8089889029218367e-09   5.9282475478541972e-09   5.9195544818720007e-09   6.0331173289061180e-09   6.0241991557889653e-09   6.1318276712299449e-09   6.1226904334062650e-09   6.2241598633809654e-09   6.2148101063534043e-09   6.3099099789098335e-09   6.3003547304786615e-09   6.3888893265211273e-09   6.3791360747157282e-09   6.4609248662971331e-09   6.4509815363492518e-09   6.5258595911053301e-09   6.5157345212008657e-09   6.5835528718569574e-09   6.5732547880829798e-09   6.6338807658184074e-09   6.6234187561505323e-09   6.6767362869645644e-09   6.6661197745935115e-09   6.7120296376683628e-09   6.7012683535373819e-09   6.7396884009381306e-09   6.7287923557965709e-09   6.7596576927843901e-09   6.7486371486650214e-09   6.7719002740854007e-09   6.7607657154465622e-09   6.7763966216357556e-09   6.7651587261594684e-09   6.7731449581076004e-09   6.7618145672849936e-09   6.7621612407810759e-09   6.7507493303620538e-09   6.7434791089394849e-09   6.7319967593750518e-09   6.7171497900046990e-09   6.7056081569182464e-09   6.6832419646048857e-09   6.6716522494036054e-09   6.6418415907468764e-09   6.6302150115014314e-09   6.5930516874988432e-09   6.5813994501011223e-09   6.5369920787157297e-09   6.5253253484261805e-09   6.4737990972111881e-09   6.4621289707866228e-09   6.4036252502360735e-09   6.3919627285232438e-09   6.3266388468812570e-09   6.3149948081381261e-09   6.2430235883451419e-09   6.2314087622612437e-09   6.1529781219482038e-09   6.1414030645111472e-09   6.0567155600408778e-09   6.0451906292596423e-09   5.9544629648636351e-09   5.9429982975022621e-09   5.8464608005730661e-09   5.8350662898777845e-09   5.7329623537727653e-09   5.7216476283646982e-09   5.6142331239286912e-09   5.6030075278527806e-09   5.4905501850671804e-09   5.4794227591177461e-09   5.3622015203523116e-09   5.3511809846949344e-09   5.2294853310334079e-09   5.2185800692861341e-09   5.0927093215437483e-09   5.0819273662310253e-09   4.9521899623371875e-09   4.9415389819583884e-09   4.8082517322521409e-09   4.7977390198923046e-09   4.6612263422508452e-09   4.6508588058701445e-09   4.5114519423201549e-09   4.5012360967991593e-09   4.3592723134728675e-09   4.3492142744093887e-09   4.2050360466608797e-09   4.1951415261138422e-09   4.0490957106427683e-09   4.0393700147579347e-09   3.8918070106825197e-09   3.8822550394093798e-09   3.7335279400332162e-09   3.7241541889390098e-09   3.5746179261922063e-09   3.5654264905041530e-09   3.4154369738642027e-09   3.4064315548358685e-09   3.2563448065153193e-09   3.2475287202746462e-09   3.0977000085536052e-09   3.0890761974628430e-09   2.9398591697939316e-09   2.9314302166621933e-09   2.7831760342498557e-09   2.7749441793827114e-09   2.6280006548549511e-09   2.6199678163152874e-09   2.4746785558431475e-09   2.4668463531095358e-09   2.3235499044162282e-09   2.3159196857466192e-09   2.1749486930706611e-09   2.1675215669870977e-09   2.0292019339568368e-09   2.0219788053016319e-09   1.8866288664594621e-09   1.8796104775275918e-09   1.7475401788027536e-09   1.7407271563684292e-09   1.6122372444575240e-09   1.6056301534653090e-09   1.4810113735862708e-09   1.4746107786886250e-09   1.3541430794481644e-09   1.3479496157659106e-09   1.2319013590969267e-09   1.2259158140425228e-09   1.1145429869786763e-09   1.1087663955299788e-09   1.0023118191596081e-09   9.9674557568737937e-10   8.9543810454336559e-10   8.9008409543522773e-10   7.9413779784882410e-10   7.8899856056853081e-10   6.9861186659933052e-10   6.9369078307900247e-10   6.0904558106010458e-10   6.0434711643804859e-10   5.2560777108159221e-10   5.2113777362036710e-10   4.4845002649072747e-10   4.4421611189596236e-10   3.7770580657669047e-10   3.7371786163170124e-10   3.1348940683390688e-10   3.0976026635610959e-10   2.5589470340814830e-10   2.5244108661883447e-10   2.0499355006775780e-10   2.0183739826041443e-10   1.6083362555305272e-10   1.5800408331687044e-10   1.2343539623113587e-10   1.2097186544170424e-10   9.2787625126038753e-11   9.0744681888112361e-11   6.8840446051602064e-11   6.7296134855446506e-11   5.1494333764074527e-11   5.0564870088512123e-11   4.0582575072978828e-11   4.0449780269934814e-11   3.5849491646824809e-11   3.6812835767737703e-11   2.9576793029277082e-11   3.9548042317739689e-11   1.5432231273771651e-10   1.1538227790379846e-10   2.0551907720667214e-10   2.0607112066754488e-10   2.6594165970644975e-10   2.6594165970642478e-10   3.3480725918566674e-10   3.3444869988238445e-10   4.1161674635612141e-10   4.1100577735728929e-10   4.9597527521900188e-10   4.9517457253619681e-10   5.8753295565982622e-10   5.8657965061945007e-10   6.8596005852369833e-10   6.8487508421706511e-10   7.9093493028423013e-10   7.8972882646142172e-10   9.0213753119341970e-10   9.0081416310475908e-10   1.0192458716604207e-09   1.0178047930032492e-09   1.1419340402283263e-09   1.1403719966775781e-09   1.2698711412372318e-09   1.2681830410188588e-09   1.4027207762073674e-09   1.4009003311626805e-09   1.5401408670317095e-09   1.5381810279016535e-09   1.6817837057546313e-09   1.6796769666906972e-09   1.8272961623785421e-09   1.8250347805933268e-09   1.9763200080813689e-09   1.9738961671133275e-09   2.1284923261652165e-09   2.1258982607710696e-09   2.2834459918783962e-09   2.2806740860632808e-09   2.4408102076618026e-09   2.4378530734985009e-09   2.6002110838495794e-09   2.5970616260559625e-09   2.7612722570672238e-09   2.7579237267873424e-09   2.9236155400763081e-09   2.9200615802211558e-09   3.0868615978812731e-09   3.0830962816464805e-09   3.2506306455787322e-09   3.2466485093318981e-09   3.4145431640171246e-09   3.4103392353682245e-09   3.5782206296964576e-09   3.5737904514097760e-09   3.7412862555857220e-09   3.7366259057596450e-09   3.9033657398465634e-09   3.8984718487157436e-09   4.0640880195383311e-09   4.0589577832092939e-09   4.2230860265712260e-09   4.2177172178485518e-09   4.3799974432933563e-09   4.3743884198357834e-09   4.5344654551487143e-09   4.5286151650927335e-09   4.6861394980432906e-09   4.6800474831463297e-09   4.8346759979180353e-09   4.8283423944935317e-09   4.9797391004248881e-09   4.9731646380093375e-09   5.1210013883689452e-09   5.1141873863075773e-09   5.2581445848181136e-09   5.2510929468619175e-09   5.3908602397973941e-09   5.3835734467409796e-09   5.5188503985590480e-09   5.5113314991081408e-09   5.6418282495714179e-09   5.6340808493600926e-09   5.7595187501761973e-09   5.7515469992566950e-09   5.8716592284245506e-09   5.8634678070281214e-09   5.9779999590700352e-09   5.9695940619781083e-09   6.0783047123149453e-09   6.0696900317827652e-09   6.1723512736416748e-09   6.1635339809633698e-09   6.2599319333083962e-09   6.2509186591915141e-09   6.3408539440977265e-09   6.3316517578704332e-09   6.4149399461583265e-09   6.4055563338222791e-09   6.4820283573982601e-09   6.4724711988673660e-09   6.5419737287834929e-09   6.5322512740330081e-09   6.5946470631344251e-09   6.5847679077187436e-09   6.6399360967812001e-09   6.6299091564779612e-09   6.6777455430016279e-09   6.6675800279727426e-09   6.7079972967792238e-09   6.6977026850531997e-09   6.7306306000563679e-09   6.7202166106863955e-09   6.7456021671396639e-09   6.7350787328796773e-09   6.7528862696934419e-09   6.7422635094942448e-09   6.7524747810802906e-09   6.7417629723327845e-09   6.7443771798877231e-09   6.7335867306128294e-09   6.7286205125016869e-09   6.7177619334772819e-09   6.7052493146917232e-09   6.6943331917322576e-09   6.6743254924278690e-09   6.6633624587149776e-09   6.6359281620744614e-09   6.6249288708075003e-09   6.5901534502051291e-09   6.5791285475594393e-09   6.5371142536689183e-09   6.5260743521576788e-09   6.4769399602946281e-09   6.4658956125901749e-09   6.4097761307751709e-09   6.3987378041695055e-09   6.3357841426960567e-09   6.3247621941042254e-09   6.2551407972984494e-09   6.2441454490683560e-09   6.1680378900040797e-09   6.1570792064631068e-09   6.0746817456800857e-09   6.0637696106076317e-09   5.9752927197623817e-09   5.9644368147192149e-09   5.8701046663401474e-09   5.8593144501017646e-09   5.7593643745700716e-09   5.7486490635581765e-09   5.6433309746848224e-09   5.6326995245865979e-09   5.5222753150086180e-09   5.5117364036199495e-09   5.3964793115121751e-09   5.3860413228144264e-09   5.2662352714606463e-09   5.2559062810552288e-09   5.1318451926642674e-09   5.1216329546575405e-09   4.9936200402275695e-09   4.9835319754853832e-09   4.8518790022317255e-09   4.8419221883026467e-09   4.7069487263918945e-09   4.6971298889005901e-09   4.5591625393710412e-09   4.5494880451515470e-09   4.4088596506160170e-09   4.3993355025628649e-09   4.2563843426675669e-09   4.2470161763671109e-09   4.1020851497411338e-09   4.0928782320317866e-09   3.9463140266903657e-09   3.9372732561151951e-09   3.7894255100799419e-09   3.7805554194604626e-09   3.6317758735444342e-09   3.6230806346281090e-09   3.4737222791869126e-09   3.4652057096031038e-09   3.3156219270910311e-09   3.3072874996334913e-09   3.1578312047733409e-09   3.1496820592371218e-09   3.0007048385919478e-09   2.9927437962134556e-09   2.8445950487565845e-09   2.8368246295878526e-09   2.6898507099911118e-09   2.6822731532716419e-09   2.5368165193991448e-09   2.5294338073025457e-09   2.3858321732538723e-09   2.3786460582713146e-09   2.2372315543236522e-09   2.2302435906250392e-09   2.0913419311055675e-09   2.0845535104040359e-09   1.9484831702964815e-09   1.9418955627292917e-09   1.8089669636948186e-09   1.8025813643755700e-09   1.6730960703703579e-09   1.6669136525319671e-09   1.5411635748447010e-09   1.5351855505670600e-09   1.4134521616042188e-09   1.4076798515002554e-09   1.2902334059251006e-09   1.2846683194810381e-09   1.1717670804777305e-09   1.1664110092293587e-09   1.0583004765429298e-09   1.0531556029418831e-09   9.5006773788176899e-10   9.4513676354457454e-10   8.4728920418344602e-10   8.4257550251175493e-10   7.5017075968304856e-10   7.4567855943083196e-10   6.5890318055662872e-10   6.5463778943826393e-10   5.7366147220359653e-10   5.6962955298186512e-10   4.9460418392804430e-10   4.9081410050972984e-10   4.2187268369379039e-10   4.1833494216069298e-10   3.5559036876135551e-10   3.5231818944614047e-10   2.9586177860772234e-10   2.9287185235270134e-10   2.4277156363737532e-10   2.4008507160222078e-10   1.9638324632620609e-10   1.9402726350481781e-10   1.5673769141875058e-10   1.5474715769130311e-10   1.2385118395855089e-10   1.2227172614840766e-10   9.7713017568135259e-11   9.6605063076728798e-11   7.8282591115009722e-11   7.7727464814127375e-11   6.5486519415094778e-11   6.5595587587056456e-11   5.9219005393025915e-11   6.0146915656738706e-11   5.9364768679973627e-11   6.1321475424964563e-11   5.1765832979130696e-11   6.9151537224640622e-11   2.1431677281718373e-10   1.5699111613907930e-10   2.6986442119583286e-10   2.7070123235436091e-10   3.3444869988245176e-10   3.3480725918566788e-10   4.0734525585992239e-10   4.0734525585965154e-10   4.8804179522892548e-10   4.8776417658461487e-10   5.7612398412737485e-10   5.7562184751871489e-10   6.7122348849598797e-10   6.7053215416173304e-10   7.7299452961401886e-10   7.7213715966111677e-10   8.8110204421060117e-10   8.8009309449975533e-10   9.9521504388828989e-10   9.9406267028417530e-10   1.1150026732186010e-09   1.1137104943322954e-09   1.2401318415123826e-09   1.2387002305496076e-09   1.3702658305189825e-09   1.3686928551234372e-09   1.5050635281624646e-09   1.5033456332915100e-09   1.6441790753