<?xml version="1.0"?>
<VTKFile type="UnstructuredGrid"  version="0.1"  >
<UnstructuredGrid>
<Piece  NumberOfPoints="16641" NumberOfCells="32768">
<Points>
<DataArray  type="Float64"  NumberOfComponents="3"  format="ascii">0 0 0  0.0078125 0 0  0.015625 0 0  0.0234375 0 0  0.03125 0 0  0.0390625 0 0  0.046875 0 0  0.0546875 0 0  0.0625 0 0  0.0703125 0 0  0.078125 0 0  0.0859375 0 0  0.09375 0 0  0.1015625 0 0  0.109375 0 0  0.1171875 0 0  0.125 0 0  0.1328125 0 0  0.140625 0 0  0.1484375 0 0  0.15625 0 0  0.1640625 0 0  0.171875 0 0  0.1796875 0 0  0.1875 0 0  0.1953125 0 0  0.203125 0 0  0.2109375 0 0  0.21875 0 0  0.2265625 0 0  0.234375 0 0  0.2421875 0 0  0.25 0 0  0.2578125 0 0  0.265625 0 0  0.2734375 0 0  0.28125 0 0  0.2890625 0 0  0.296875 0 0  0.3046875 0 0  0.3125 0 0  0.3203125 0 0  0.328125 0 0  0.3359375 0 0  0.34375 0 0  0.3515625 0 0  0.359375 0 0  0.3671875 0 0  0.375 0 0  0.3828125 0 0  0.390625 0 0  0.3984375 0 0  0.40625 0 0  0.4140625 0 0  0.421875 0 0  0.4296875 0 0  0.4375 0 0  0.4453125 0 0  0.453125 0 0  0.4609375 0 0  0.46875 0 0  0.4765625 0 0  0.484375 0 0  0.4921875 0 0  0.5 0 0  0.5078125 0 0  0.515625 0 0  0.5234375 0 0  0.53125 0 0  0.5390625 0 0  0.546875 0 0  0.5546875 0 0  0.5625 0 0  0.5703125 0 0  0.578125 0 0  0.5859375 0 0  0.59375 0 0  0.6015625 0 0  0.609375 0 0  0.6171875 0 0  0.625 0 0  0.6328125 0 0  0.640625 0 0  0.6484375 0 0  0.65625 0 0  0.6640625 0 0  0.671875 0 0  0.6796875 0 0  0.6875 0 0  0.6953125 0 0  0.703125 0 0  0.7109375 0 0  0.71875 0 0  0.7265625 0 0  0.734375 0 0  0.7421875 0 0  0.75 0 0  0.7578125 0 0  0.765625 0 0  0.7734375 0 0  0.78125 0 0  0.7890625 0 0  0.796875 0 0  0.8046875 0 0  0.8125 0 0  0.8203125 0 0  0.828125 0 0  0.8359375 0 0  0.84375 0 0  0.8515625 0 0  0.859375 0 0  0.8671875 0 0  0.875 0 0  0.8828125 0 0  0.890625 0 0  0.8984375 0 0  0.90625 0 0  0.9140625 0 0  0.921875 0 0  0.9296875 0 0  0.9375 0 0  0.9453125 0 0  0.953125 0 0  0.9609375 0 0  0.96875 0 0  0.9765625 0 0  0.984375 0 0  0.9921875 0 0  1 0 0  0 0.0078125 0  0.0078125 0.0078125 0  0.015625 0.0078125 0  0.0234375 0.0078125 0  0.03125 0.0078125 0  0.0390625 0.0078125 0  0.046875 0.0078125 0  0.0546875 0.0078125 0  0.0625 0.0078125 0  0.0703125 0.0078125 0  0.078125 0.0078125 0  0.0859375 0.0078125 0  0.09375 0.0078125 0  0.1015625 0.0078125 0  0.109375 0.0078125 0  0.1171875 0.0078125 0  0.125 0.0078125 0  0.1328125 0.0078125 0  0.140625 0.0078125 0  0.1484375 0.0078125 0  0.15625 0.0078125 0  0.1640625 0.0078125 0  0.171875 0.0078125 0  0.1796875 0.0078125 0  0.1875 0.0078125 0  0.1953125 0.0078125 0  0.203125 0.0078125 0  0.2109375 0.0078125 0  0.21875 0.0078125 0  0.2265625 0.0078125 0  0.234375 0.0078125 0  0.2421875 0.0078125 0  0.25 0.0078125 0  0.2578125 0.0078125 0  0.265625 0.0078125 0  0.2734375 0.0078125 0  0.28125 0.0078125 0  0.2890625 0.0078125 0  0.296875 0.0078125 0  0.3046875 0.0078125 0  0.3125 0.0078125 0  0.3203125 0.0078125 0  0.328125 0.0078125 0  0.3359375 0.0078125 0  0.34375 0.0078125 0  0.3515625 0.0078125 0  0.359375 0.0078125 0  0.3671875 0.0078125 0  0.375 0.0078125 0  0.3828125 0.0078125 0  0.390625 0.0078125 0  0.3984375 0.0078125 0  0.40625 0.0078125 0  0.4140625 0.0078125 0  0.421875 0.0078125 0  0.4296875 0.0078125 0  0.4375 0.0078125 0  0.4453125 0.0078125 0  0.453125 0.0078125 0  0.4609375 0.0078125 0  0.46875 0.0078125 0  0.4765625 0.0078125 0  0.484375 0.0078125 0  0.4921875 0.0078125 0  0.5 0.0078125 0  0.5078125 0.0078125 0  0.515625 0.0078125 0  0.5234375 0.0078125 0  0.53125 0.0078125 0  0.5390625 0.0078125 0  0.546875 0.0078125 0  0.5546875 0.0078125 0  0.5625 0.0078125 0  0.5703125 0.0078125 0  0.578125 0.0078125 0  0.5859375 0.0078125 0  0.59375 0.0078125 0  0.6015625 0.0078125 0  0.609375 0.0078125 0  0.6171875 0.0078125 0  0.625 0.0078125 0  0.6328125 0.0078125 0  0.640625 0.0078125 0  0.6484375 0.0078125 0  0.65625 0.0078125 0  0.6640625 0.0078125 0  0.671875 0.0078125 0  0.6796875 0.0078125 0  0.6875 0.0078125 0  0.6953125 0.0078125 0  0.703125 0.0078125 0  0.7109375 0.0078125 0  0.71875 0.0078125 0  0.7265625 0.0078125 0  0.734375 0.0078125 0  0.7421875 0.0078125 0  0.75 0.0078125 0  0.7578125 0.0078125 0  0.765625 0.0078125 0  0.7734375 0.0078125 0  0.78125 0.0078125 0  0.7890625 0.0078125 0  0.796875 0.0078125 0  0.8046875 0.0078125 0  0.8125 0.0078125 0  0.8203125 0.0078125 0  0.828125 0.0078125 0  0.8359375 0.0078125 0  0.84375 0.0078125 0  0.8515625 0.0078125 0  0.859375 0.0078125 0  0.8671875 0.0078125 0  0.875 0.0078125 0  0.8828125 0.0078125 0  0.890625 0.0078125 0  0.8984375 0.0078125 0  0.90625 0.0078125 0  0.9140625 0.0078125 0  0.921875 0.0078125 0  0.9296875 0.0078125 0  0.9375 0.0078125 0  0.9453125 0.0078125 0  0.953125 0.0078125 0  0.9609375 0.0078125 0  0.96875 0.0078125 0  0.9765625 0.0078125 0  0.984375 0.0078125 0  0.9921875 0.0078125 0  1 0.0078125 0  0 0.015625 0  0.0078125 0.015625 0  0.015625 0.015625 0  0.0234375 0.015625 0  0.03125 0.015625 0  0.0390625 0.015625 0  0.046875 0.015625 0  0.0546875 0.015625 0  0.0625 0.015625 0  0.0703125 0.015625 0  0.078125 0.015625 0  0.0859375 0.015625 0  0.09375 0.015625 0  0.1015625 0.015625 0  0.109375 0.015625 0  0.1171875 0.015625 0  0.125 0.015625 0  0.1328125 0.015625 0  0.140625 0.015625 0  0.1484375 0.015625 0  0.15625 0.015625 0  0.1640625 0.015625 0  0.171875 0.015625 0  0.1796875 0.015625 0  0.1875 0.015625 0  0.1953125 0.015625 0  0.203125 0.015625 0  0.2109375 0.015625 0  0.21875 0.015625 0  0.2265625 0.015625 0  0.234375 0.015625 0  0.2421875 0.015625 0  0.25 0.015625 0  0.2578125 0.015625 0  0.265625 0.015625 0  0.2734375 0.015625 0  0.28125 0.015625 0  0.2890625 0.015625 0  0.296875 0.015625 0  0.3046875 0.015625 0  0.3125 0.015625 0  0.3203125 0.015625 0  0.328125 0.015625 0  0.3359375 0.015625 0  0.34375 0.015625 0  0.3515625 0.015625 0  0.359375 0.015625 0  0.3671875 0.015625 0  0.375 0.015625 0  0.3828125 0.015625 0  0.390625 0.015625 0  0.3984375 0.015625 0  0.40625 0.015625 0  0.4140625 0.015625 0  0.421875 0.015625 0  0.4296875 0.015625 0  0.4375 0.015625 0  0.4453125 0.015625 0  0.453125 0.015625 0  0.4609375 0.015625 0  0.46875 0.015625 0  0.4765625 0.015625 0  0.484375 0.015625 0  0.4921875 0.015625 0  0.5 0.015625 0  0.5078125 0.015625 0  0.515625 0.015625 0  0.5234375 0.015625 0  0.53125 0.015625 0  0.5390625 0.015625 0  0.546875 0.015625 0  0.5546875 0.015625 0  0.5625 0.015625 0  0.5703125 0.015625 0  0.578125 0.015625 0  0.5859375 0.015625 0  0.59375 0.015625 0  0.6015625 0.015625 0  0.609375 0.015625 0  0.6171875 0.015625 0  0.625 0.015625 0  0.6328125 0.015625 0  0.640625 0.015625 0  0.6484375 0.015625 0  0.65625 0.015625 0  0.6640625 0.015625 0  0.671875 0.015625 0  0.6796875 0.015625 0  0.6875 0.015625 0  0.6953125 0.015625 0  0.703125 0.015625 0  0.7109375 0.015625 0  0.71875 0.015625 0  0.7265625 0.015625 0  0.734375 0.015625 0  0.7421875 0.015625 0  0.75 0.015625 0  0.7578125 0.015625 0  0.765625 0.015625 0  0.7734375 0.015625 0  0.78125 0.015625 0  0.7890625 0.015625 0  0.796875 0.015625 0  0.8046875 0.015625 0  0.8125 0.015625 0  0.8203125 0.015625 0  0.828125 0.015625 0  0.8359375 0.015625 0  0.84375 0.015625 0  0.8515625 0.015625 0  0.859375 0.015625 0  0.8671875 0.015625 0  0.875 0.015625 0  0.8828125 0.015625 0  0.890625 0.015625 0  0.8984375 0.015625 0  0.90625 0.015625 0  0.9140625 0.015625 0  0.921875 0.015625 0  0.9296875 0.015625 0  0.9375 0.015625 0  0.9453125 0.015625 0  0.953125 0.015625 0  0.9609375 0.015625 0  0.96875 0.015625 0  0.9765625 0.015625 0  0.984375 0.015625 0  0.9921875 0.015625 0  1 0.015625 0  0 0.0234375 0  0.0078125 0.0234375 0  0.015625 0.0234375 0  0.0234375 0.0234375 0  0.03125 0.0234375 0  0.0390625 0.0234375 0  0.046875 0.0234375 0  0.0546875 0.0234375 0  0.0625 0.0234375 0  0.0703125 0.0234375 0  0.078125 0.0234375 0  0.0859375 0.0234375 0  0.09375 0.0234375 0  0.1015625 0.0234375 0  0.109375 0.0234375 0  0.1171875 0.0234375 0  0.125 0.0234375 0  0.1328125 0.0234375 0  0.140625 0.0234375 0  0.1484375 0.0234375 0  0.15625 0.0234375 0  0.1640625 0.0234375 0  0.171875 0.0234375 0  0.1796875 0.0234375 0  0.1875 0.0234375 0  0.1953125 0.0234375 0  0.203125 0.0234375 0  0.2109375 0.0234375 0  0.21875 0.0234375 0  0.2265625 0.0234375 0  0.234375 0.0234375 0  0.2421875 0.0234375 0  0.25 0.0234375 0  0.2578125 0.0234375 0  0.265625 0.0234375 0  0.2734375 0.0234375 0  0.28125 0.0234375 0  0.2890625 0.0234375 0  0.296875 0.0234375 0  0.3046875 0.0234375 0  0.3125 0.0234375 0  0.3203125 0.0234375 0  0.328125 0.0234375 0  0.3359375 0.0234375 0  0.34375 0.0234375 0  0.3515625 0.0234375 0  0.359375 0.0234375 0  0.3671875 0.0234375 0  0.375 0.0234375 0  0.3828125 0.0234375 0  0.390625 0.0234375 0  0.3984375 0.0234375 0  0.40625 0.0234375 0  0.4140625 0.0234375 0  0.421875 0.0234375 0  0.4296875 0.0234375 0  0.4375 0.0234375 0  0.4453125 0.0234375 0  0.453125 0.0234375 0  0.4609375 0.0234375 0  0.46875 0.0234375 0  0.4765625 0.0234375 0  0.484375 0.0234375 0  0.4921875 0.0234375 0  0.5 0.0234375 0  0.5078125 0.0234375 0  0.515625 0.0234375 0  0.5234375 0.0234375 0  0.53125 0.0234375 0  0.5390625 0.0234375 0  0.546875 0.0234375 0  0.5546875 0.0234375 0  0.5625 0.0234375 0  0.5703125 0.0234375 0  0.578125 0.0234375 0  0.5859375 0.0234375 0  0.59375 0.0234375 0  0.6015625 0.0234375 0  0.609375 0.0234375 0  0.6171875 0.0234375 0  0.625 0.0234375 0  0.6328125 0.0234375 0  0.640625 0.0234375 0  0.6484375 0.0234375 0  0.65625 0.0234375 0  0.6640625 0.0234375 0  0.671875 0.0234375 0  0.6796875 0.0234375 0  0.6875 0.0234375 0  0.6953125 0.0234375 0  0.703125 0.0234375 0  0.7109375 0.0234375 0  0.71875 0.0234375 0  0.7265625 0.0234375 0  0.734375 0.0234375 0  0.7421875 0.0234375 0  0.75 0.0234375 0  0.7578125 0.0234375 0  0.765625 0.0234375 0  0.7734375 0.0234375 0  0.78125 0.0234375 0  0.7890625 0.0234375 0  0.796875 0.0234375 0  0.8046875 0.0234375 0  0.8125 0.0234375 0  0.8203125 0.0234375 0  0.828125 0.0234375 0  0.8359375 0.0234375 0  0.84375 0.0234375 0  0.8515625 0.0234375 0  0.859375 0.0234375 0  0.8671
[...]
<CellData  Scalars="f_6319"> 
<DataArray  type="Float64"  Name="f_6319"  format="ascii">3.5891864938392299e-12   3.5891864938417207e-12   6.4131346511585741e-13   1.1358325253896474e-12   5.6750619043155777e-13   6.3358031644739847e-13   5.8873843786593036e-13   5.9924304801702171e-13   6.1051585522504904e-13   6.1202323581871916e-13   6.2726057105877158e-13   6.2908008238115518e-13   6.4000285743742537e-13   6.4365242573763879e-13   6.4979341941176201e-13   6.5520183612158038e-13   6.5732501519514158e-13   6.6416704860394349e-13   6.6303862848968697e-13   6.7100674547480479e-13   6.6721998867369856e-13   6.7606756082681988e-13   6.7005982850005237e-13   6.7959629669805518e-13   6.7168980386808590e-13   6.8176817018559668e-13   6.7220407548680087e-13   6.8270962530656423e-13   6.7167256588800584e-13   6.8251424211451662e-13   6.7014931191745566e-13   6.8125344137901069e-13   6.6767786076135553e-13   6.7898365982667029e-13   6.6429483642518901e-13   6.7575119587087625e-13   6.6003234787632829e-13   6.7159552117760347e-13   6.5491964334171669e-13   6.6655157258830335e-13   6.4898426544417911e-13   6.6065135802727539e-13   6.4225286675873348e-13   6.5392509375708719e-13   6.3475179015515174e-13   6.4640201670256209e-13   6.2650748393561501e-13   6.3811096832036807e-13   6.1754679940450781e-13   6.2908081435057483e-13   6.0789719845665260e-13   6.1934074545825740e-13   5.9758690037345509e-13   6.0892049191563397e-13   5.8664497775053362e-13   5.9785047047788144e-13   5.7510141625072099e-13   5.8616188343245281e-13   5.6298714519803275e-13   5.7388677920125482e-13   5.5033404542846674e-13   5.6105808332339862e-13   5.3717493874035525e-13   5.4770960465241048e-13   5.2354356339027055e-13   5.3387602518226930e-13   5.0947453795215502e-13   5.1959287345598696e-13   4.9500331306401763e-13   5.0489648593564323e-13   4.8016611788824688e-13   4.8982395776390035e-13   4.6499989777610531e-13   4.7441308610693239e-13   4.4954224593479933e-13   4.5870230663145171e-13   4.3383133304328449e-13   4.4273062309914388e-13   4.1790582867342559e-13   4.2653753250495664e-13   4.0180482271641527e-13   4.1016294732177878e-13   3.8556774163046313e-13   3.9364711168776356e-13   3.6923426377700114e-13   3.7703051894417909e-13   3.5284423238370607e-13   3.6035382192315263e-13   3.3643756651910685e-13   3.4365774628938958e-13   3.2005417171900377e-13   3.2698299864434604e-13   3.0373384961936132e-13   3.1037017665082796e-13   2.8751620660057994e-13   2.9385967650121471e-13   2.7144056328893449e-13   2.7749160132536874e-13   2.5554586390360558e-13   2.6130566944063709e-13   2.3987058524557685e-13   2.4534112233118585e-13   2.2445264799721604e-13   2.2963663474275609e-13   2.0932932777129589e-13   2.1423022477203471e-13   1.9453716805235174e-13   1.9915916442826873e-13   1.8011189412204072e-13   1.8445989329668919e-13   1.6608832998974919e-13   1.7016793424012565e-13   1.5250031612825684e-13   1.5631780819558682e-13   1.3938062855096289e-13   1.4294295437855323e-13   1.2676090405854155e-13   1.3007565188261779e-13   1.1467156302069399e-13   1.1774694253005797e-13   1.0314173989783308e-13   1.0598655926050880e-13   9.2199211697885349e-14   9.4822854234942553e-14   8.1870335685013367e-14   8.4282734498238573e-14   7.2179984421245253e-14   7.4391596106405272e-14   6.3151488197136073e-14   6.5173265794964177e-14   5.4806580623893921e-14   5.6649943745982492e-14   4.7165346044287580e-14   4.8842153130395723e-14   4.0246173427345737e-14   4.1768689347438498e-14   3.4065712557448410e-14   3.5446577889622974e-14   2.8638835308055314e-14   2.9891033553017580e-14   2.3978601150882836e-14   2.5115424993206590e-14   2.0096226314963860e-14   2.1131243847002571e-14   1.7001058394313789e-14   1.7948077643749586e-14   1.4700554879071398e-14   1.5573588044793502e-14   1.3200266124161839e-14   1.4013493672857209e-14   1.2503823731510680e-14   1.3271556892140092e-14   1.2612932832476992e-14   1.3349576215451499e-14   1.3527369381368496e-14   1.4247382756531846e-14   1.5244982214473830e-14   1.5962842130014370e-14   1.7761699734951266e-14   1.8491860351738599e-14   2.1071541454556155e-14   2.1828395054392586e-14   2.5166634092028761e-14   2.5964471156950242e-14   3.0037232504547373e-14   3.0890201361594329e-14   3.5671745272609878e-14   3.6593811170658502e-14   4.2056764826066736e-14   4.3061668591414932e-14   4.9177102362941450e-14   5.0278318290231515e-14   5.7015827179017095e-14   5.8226520260267632e-14   6.5554310489037811e-14   6.6887292748769304e-14   7.4772273933531262e-14   7.6239959476498492e-14   8.4647842274968470e-14   8.6262201059066476e-14   9.5157600557881055e-14   9.6930110194315603e-14   1.0627665584605118e-13   1.0821825102180808e-13   1.1797870283732141e-13   1.2009972189318064e-13   1.3023609458540663e-13   1.3254622202227315e-13   1.4301991682936296e-13   1.4552812100052899e-13   1.5630006781962208e-13   1.5901453176787508e-13   1.7004534179044248e-13   1.7297338666521364e-13   1.8422351882958656e-13   1.8737151557162903e-13   1.9880145899962768e-13   2.0217472685261688e-13   2.1374520307091532e-13   2.1734788984145687e-13   2.2902008126087418e-13   2.3285501913202742e-13   2.4459082859675835e-13   2.4865935978181272e-13   2.6042171220951788e-13   2.6472347179403075e-13   2.7647667125496017e-13   2.8100931612108374e-13   2.9271947415485965e-13   2.9747833548293927e-13   3.0911389902380249e-13   3.1409153444805978e-13   3.2562394612695204e-13   3.3080955145222479e-13   3.4221409598380236e-13   3.4759272204996884e-13   3.5884963266448907e-13   3.6440112852423146e-13   3.7549706499693423e-13   3.8119462804881957e-13   3.9212469548203788e-13   3.9793284976374020e-13   4.0870341997360815e-13   4.1457514997748125e-13   4.2520789638762054e-13   4.3108050327734982e-13   4.4161832518070426e-13   4.4740731011107000e-13   4.5792327126429666e-13   4.6351309642440354e-13   4.7412433708463354e-13   4.7935410303649704e-13   4.9024425887384747e-13   4.9488484626055170e-13   5.0634164360457573e-13   5.1005802241644607e-13   5.2253924479068063e-13   5.2482606761597289e-13   5.3908127153555756e-13   5.3914873946507605e-13   5.5645552159555126e-13   5.5302137884614517e-13   5.7566123133847349e-13   5.6657527805610328e-13   5.9877132197942331e-13   5.8044207432527627e-13   6.2975269263894726e-13   5.9714264032302377e-13   6.7264566193873785e-13   6.2655606483891605e-13   7.0849511911092779e-13   7.0566649777704971e-13   8.7970153575755490e-13   9.1577836338193188e-13   5.0906594313529764e-11   2.0061641034920261e-12   1.1358325253889924e-12   6.4131346511957579e-13   7.4678257803755599e-13   7.4678257804780800e-13   6.6380054456030608e-13   7.6695578924473393e-13   6.5057055043581507e-13   7.1258717271384069e-13   6.5258086298521668e-13   6.7885868649077790e-13   6.5935566657624130e-13   6.6964136938696405e-13   6.6665177381332177e-13   6.7033517639832226e-13   6.7314157496939351e-13   6.7418154616963632e-13   6.7846980367906634e-13   6.7856892933133154e-13   6.8258178539844378e-13   6.8249748617978252e-13   6.8551034657145195e-13   6.8558458032975815e-13   6.8730841552972168e-13   6.8769210192862731e-13   6.8802838059323356e-13   6.8878170033547545e-13   6.8771676852510843e-13   6.8885604360761376e-13   6.8641387460190410e-13   6.8793424505027168e-13   6.8415482430028490e-13   6.8604148107785568e-13   6.8097088156806435e-13   6.8320469975376104e-13   6.7689062627808615e-13   6.7945098520327190e-13   6.7194091427036551e-13   6.7480707956879020e-13   6.6614762805765535e-13   6.6929938977561984e-13   6.5953624963730058e-13   6.6295417662196618e-13   6.5213229057053127e-13   6.5579779051342102e-13   6.4396161369185845e-13   6.4785689927050855e-13   6.3505066794816248e-13   6.3915868214263554e-13   6.2542665955183518e-13   6.2973098695438002e-13   6.1511766870460036e-13   6.1960244767803910e-13   6.0415272999710195e-13   6.0880257275505097e-13   5.9256187690645736e-13   5.9736180074244107e-13   5.8037616602677916e-13   5.8531153400716598e-13   5.6762767634049015e-13   5.7268414960625467e-13   5.5434949579724977e-13   5.5951299520084533e-13   5.4057569046090112e-13   5.4583236777939015e-13   5.2634126715695685e-13   5.3167748294187957e-13   5.1168212231525679e-13   5.1708443023527031e-13   4.9663498546236751e-13   5.0209012366994397e-13   4.8123735550431744e-13   4.8673224076637586e-13   4.6552743103679437e-13   4.7104915923596956e-13   4.4954403598759151e-13   4.5507988416396186e-13   4.3332654160717207e-13   4.3886397362958920e-13   4.1691478376128053e-13   4.2244145882742198e-13   4.0034897913632778e-13   4.0585276218604635e-13   3.8366963686100541e-13   3.8913861052808256e-13   3.6691747163988655e-13   3.7233994866906006e-13   3.5013330991743554e-13   3.5549784805315871e-13   3.3335800100373461e-13   3.3865341795346695e-13   3.1663232181790986e-13   3.2184771101749961e-13   2.9999688593002711e-13   3.0512163220162227e-13   2.8349204825294775e-13   2.8851584563423246e-13   2.6715781358995328e-13   2.7207068001572204e-13   2.5103374322168093e-13   2.5582603782633650e-13   2.3515886163749097e-13   2.3982130113904601e-13   2.1957156698530991e-13   2.2409524184208611e-13   2.0430954111473058e-13   2.0868593080801869e-13   1.8940966098582736e-13   1.9363064858025371e-13   1.7490791079131379e-13   1.7896579861878727e-13   1.6083929940986383e-13   1.6472682217075100e-13   1.4723777675356965e-13   1.5094811509355198e-13   1.3413615396655600e-13   1.3766294595927206e-13   1.2156602574404980e-13   1.2490337948285192e-13   1.0955769632892886e-13   1.1270019963219570e-13   9.8140107457471620e-14   1.0108283785734228e-13   8.7340770197793238e-14   9.0079302938601920e-14   7.7185700362351293e-14   7.9716116157344952e-14   6.7699355939489276e-14   7.0018246919121444e-14   5.8904581426860394e-14   6.1009056203446132e-14   5.0822551004197137e-14   5.2710238662372510e-14   4.3472722244002969e-14   4.5141774981986639e-14   3.6872787490797204e-14   3.8321880856709926e-14   3.1038633623350377e-14   3.2266967749570294e-14   2.5984305001730939e-14   2.6991601894568714e-14   2.1721970114969437e-14   2.2508471479753356e-14   1.8261893971152908e-14   1.8828356625899960e-14   1.5612414458465366e-14   1.5960104456143795e-14   1.3779923002713128e-14   1.3910608319166139e-14   1.2768851016690145e-14   1.2684792496607519e-14   1.2581659903781461e-14   1.2285600853782805e-14   1.3218836793615368e-14   1.2713990768366215e-14   1.4678894456256073e-14   1.3968931489363371e-14   1.6958376467702289e-14   1.6047407345245936e-14   2.0051866899829728e-14   1.8944425822431138e-14   2.3952004955478268e-14   2.2653030177846338e-14   2.8649504347502642e-14   2.7164316769938903e-14   3.4133177438846437e-14   3.2467457189094424e-14   4.0389964023409093e-14   3.8549724662105797e-14   4.7404964827025025e-14   4.5396525111746693e-14   5.5161479530282316e-14   5.2991432600266002e-14   6.3641049473662507e-14   6.1316228831183641e-14   7.2823504603850139e-14   7.0350947089262411e-14   8.2687014756361748e-14   8.0073919590423564e-14   9.3208145564402261e-14   9.0461829489180781e-14   1.0436191795090318e-13   1.0148976523418410e-13   1.1612187254998090e-13   1.1313127941854966e-13   1.2846013716378869e-13   1.2535844977383050e-13   1.4134749868198801e-13   1.3814194313755999e-13   1.5475347876062419e-13   1.5145108192970282e-13   1.6864641355627268e-13   1.6525391200661429e-13   1.8299353544671854e-13   1.7951727136781385e-13   1.9776106094383721e-13   1.9420686044317241e-13   2.1291427967633250e-13   2.0928731018633660e-13   2.2841764836162199e-13   2.2472224985879674e-13   2.4423488717047824e-13   2.4047436980079966e-13   2.6032908013389777e-13   2.5650548033069861e-13   2.7666277856632705e-13   2.7277656066169566e-13   2.9319810717155283e-13   2.8924779662877740e-13   3.0989687405610880e-13   3.0587859906058400e-13   3.2672068177972561e-13   3.2262759824700697e-13   3.4363104056633658e-13   3.3945260083718354e-13   3.6058947996391503e-13   3.5631049495920462e-13   3.7755765546566927e-13   3.7315707973254613e-13   3.9449744241779278e-13   3.8994678610067393e-13   4.1137099978645009e-13   4.0663223696780089e-13   4.2814077543276483e-13   4.2316357035385588e-13   4.4476939079099631e-13   4.3948740438773537e-13   4.6121928384170309e-13   4.5554526257154295e-13   4.7745184783668986e-13   4.7127116455141533e-13   4.9342550870775422e-13   4.8658793176222611e-13   5.0909144515496115e-13   5.0140148600721437e-13   5.2438384331287395e-13   5.1559204348704976e-13   5.3919667112996721e-13   5.2900058679177871e-13   5.5332501247311196e-13   5.4140849410564813e-13   5.6630707854898516e-13   5.5250809565866529e-13   5.7697437288125735e-13   5.6186170219281830e-13   5.8214685814142208e-13   5.6883063920240795e-13   5.7322958239700500e-13   5.7228862189702408e-13   5.3285991406265350e-13   5.6883239311533485e-13   4.9459932146655973e-13   5.4508222181238833e-13   1.0642594759096994e-12   5.0381527620080631e-13   8.8954043141737504e-13   9.2733139168736581e-13   6.3358031644906555e-13   5.6750619042670727e-13   7.6695578923935422e-13   6.6380054456136368e-13   7.1228733013048310e-13   7.1228733014344616e-13   6.8896537430210422e-13   7.2619456413389180e-13   6.8147667682088326e-13   7.1459020498837519e-13   6.8076789889935777e-13   7.0261275445991062e-13   6.8291238291852672e-13   6.9633933350396312e-13   6.8595476088557866e-13   6.9425293908025583e-13   6.8892562421872617e-13   6.9428365289747892e-13   6.9135784622959754e-13   6.9508421506997959e-13   6.9303094347990035e-13   6.9589245008648841e-13   6.9384447125391677e-13   6.9629218381412439e-13   6.9375691990785697e-13   6.9605850619986491e-13   6.9275620105982839e-13   6.9507147226185257e-13   6.9084523704966176e-13   6.9326947702494928e-13   6.8803484834270368e-13   6.9062403189797347e-13   6.8434021978554209e-13   6.8712595324391308e-13   6.7977915251074597e-13   6.8277768732244558e-13   6.7437121474805231e-13   6.7758898093988619e-13   6.6813734615281327e-13   6.7157440515333224e-13   6.6109969181264709e-13   6.6475192302376734e-13   6.5328154425032048e-13   6.5714204826095458e-13   6.4470733747004506e-13   6.4876734863504713e-13   6.3540265673595984e-13   6.3965214307097128e-13   6.2539425318316372e-13   6.2982231429224902e-13   6.1471004992431322e-13   6.1930518647254582e-13   6.0337914167766549e-13   6.0812943720867383e-13   5.9143178390420494e-13   5.9632503149434140e-13   5.7889936904064031e-13   5.8392316097036201e-13   5.6581439811062083e-13   5.7095618956948608e-13   5.5221043809022858e-13   5.5745759562832669e-13   5.3812207646756019e-13   5.4346191501134365e-13   5.2358486441584345e-13   5.2900467828013639e-13   5.0863525639009597e-13   5.1412234424977600e-13   4.9331054346399075e-13   4.9885223170040137e-13   4.7764878165426533e-13   4.8323244465192984e-13   4.6168871502722336e-13   4.6730179666787705e-13   4.4546969692223088e-13   4.5109972954873799e-13   4.2903160689201470e-13   4.3466623147074923e-13   4.1241476535627109e-13   4.1804174969604642e-13   3.9565984399669042e-13   4.0126710381550422e-13   3.7880777810419927e-13   3.8438339572182664e-13   3.6189967310077859e-13   3.6743191777027295e-13   3.4497671253297639e-13   3.5045406016325572e-13   3.2808006455499416e-13   3.3349121759466867e-13   3.1125078780388615e-13   3.1658469439748924e-13   2.9452973562715506e-13   2.9977561016396339e-13   2.7795746340562682e-13   2.8310480603512552e-13   2.6157413337939108e-13   2.6661274891015227e-13   2.4541942162052438e-13   2.5033943827884649e-13   2.2953242449079704e-13   2.3432431263902735e-13   2.1395156910821233e-13   2.1860615871414155e-13   1.9871452019809404e-13   2.0322301936637814e-13   1.8385809467683674e-13   1.8821210530767701e-13   1.6941817291647974e-13   1.7360970749640610e-13   1.5542961552723409e-13   1.5945111162650427e-13   1.4192617976990085e-13   1.4577051557394610e-13   1.2894044195393276e-13   1.3260094852231050e-13   1.1650371777850337e-13   1.1997419303487047e-13   1.0464599089659172e-13   1.0792071045670065e-13   9.3395840818160073e-14   9.6469568580493616e-14   8.2780375258145584e-14   8.5648373271118924e-14   7.2825166675841122e-14   7.5483203098629116e-14   6.3554191383039315e-14   6.5998547897342229e-14   5.4989773362711401e-14   5.7217250931593205e-14   4.7152531025726703e-14   4.9160454788876060e-14   4.0061329559787149e-14   4.1847551624725544e-14   3.3733235433240355e-14   3.5296137389244500e-14   2.8183476948880808e-14   2.9521970483290196e-14   2.3425408596778413e-14   2.4538934520240465e-14   1.9470479682613641e-14   2.0359005854141417e-14   1.6328207951555518e-14   1.6992225334203518e-14   1.4006157139858164e-14   1.4446674950090146e-14   1.2509920418277994e-14   1.2728459346632723e-14   1.1843107585581438e-14   1.1841691177894011e-14   1.2007337185462305e-14   1.1788482220959218e-14   1.3002233788564819e-14   1.2568938756831609e-14   1.4825429976656035e-14   1.4181161375585732e-14   1.7472572611191981e-14   1.6621250472973002e-14   2.0937334770648645e-14   1.9883315366282980e-14   2.5211431650426717e-14   2.3959488915031795e-14   3.0284641501338229e-14   2.8839946361132076e-14   3.6144831408702542e-14   3.4512928735117471e-14   4.2777987086726691e-14   4.0964770829900071e-14   5.0168247771880128e-14   4.8179933470581009e-14   5.8297944946879848e-14   5.6141039868489772e-14   6.7147646070304007e-14   6.4828916174242025e-14   7.6696201292749904e-14   7.4222635748572956e-14   8.6920795531242397e-14   8.4299567142464544e-14   9.7797002765562997e-14   9.5035425403566826e-14   1.0929884558325730e-13   1.0640432657539239e-13   1.2139885646648463e-13   1.1837884442214403e-13   1.3406814335738160e-13   1.3093007035037718e-13   1.4727645668063675e-13   1.4402767377247524e-13   1.6099225989009148e-13   1.5763996489067319e-13   1.7518280030956719e-13   1.7173395670911238e-13   1.8981418236995536e-13   1.8627542703835342e-13   2.0485143964775750e-13   2.0122897815633917e-13   2.2025860717624076e-13   2.1655809320281545e-13   2.3599878963599437e-13   2.3222518613123566e-13   2.5203422743277272e-13   2.4819164466454209e-13   2.6832635167790759e-13   2.6441785910179541e-13   2.8483583160366741e-13   2.8086323600952457e-13   3.0152260102828107e-13   2.9748618619723138e-13   3.1834586118590327e-13   3.1424408036619827e-13   3.3526404384133579e-13   3.3109315796920237e-13   3.5223471618792135e-13   3.4798837030112317e-13   3.6921439797107693e-13   3.6488313215306267e-13   3.8615824344862796e-13   3.8172894229274770e-13   4.0301951397092832e-13   3.9847481691924183e-13   4.1974871565887918e-13   4.1506644993956668e-13   4.3629219477163021e-13   4.3144497442404831e-13   4.5258983316430177e-13   4.4754512999673712e-13   4.6857120280845486e-13   4.6329253677366604e-13   4.8414901670509810e-13   4.7859960586882289e-13   4.9920766557567150e-13   4.9335934010739471e-13   5.1358253189849745e-13   5.0743582310031987e-13   5.2702139214304617e-13   5.2064941864420396e-13   5.3910999391545289e-13   5.3275333098729688e-13   5.4912489105261459e-13   5.4339554702419356e-13   5.5574193406482163e-13   5.5205452721101121e-13   5.5649467145053079e-13   5.5792369892813955e-13   5.4702849593191947e-13   5.5969318821458038e-13   5.2154837054508149e-13   5.5520406606888319e-13   4.8154904406568720e-13   5.4184891889837617e-13   4.6317140782178386e-13   5.2531356354594792e-13   5.0572915375683050e-13   5.6114616904434473e-13   7.3507394454873848e-13   7.3920808883393299e-13   5.9924304802235638e-13   5.8873843786177952e-13   7.1258717270110976e-13   6.5057055044114428e-13   7.2619456412312260e-13   6.8896537431783257e-13   7.1350322350330492e-13   7.1350322352481080e-13   7.0447312597893121e-13   7.2043161988477883e-13   7.0017189250986877e-13   7.1781157100419293e-13   6.9881286864777066e-13   7.1335259134549175e-13   6.9896170545034491e-13   7.0993479900488640e-13   6.9966881991303867e-13   7.0781884323302065e-13   7.0034570902472737e-13   7.0651790294458254e-13   7.0064008527026194e-13   7.0550690197221781e-13   7.0034517666914524e-13   7.0438870892476207e-13   6.9934163330823616e-13   7.0289441549506759e-13   6.9756244246880790e-13   7.0085046944931856e-13   6.9497224672