<?xml version="1.0"?>
<VTKFile type="UnstructuredGrid"  version="0.1"  >
<UnstructuredGrid>
<Piece  NumberOfPoints="16641" NumberOfCells="32768">
<Points>
<DataArray  type="Float64"  NumberOfComponents="3"  format="ascii">0 0 0  0.0078125 0 0  0.015625 0 0  0.0234375 0 0  0.03125 0 0  0.0390625 0 0  0.046875 0 0  0.0546875 0 0  0.0625 0 0  0.0703125 0 0  0.078125 0 0  0.0859375 0 0  0.09375 0 0  0.1015625 0 0  0.109375 0 0  0.1171875 0 0  0.125 0 0  0.1328125 0 0  0.140625 0 0  0.1484375 0 0  0.15625 0 0  0.1640625 0 0  0.171875 0 0  0.1796875 0 0  0.1875 0 0  0.1953125 0 0  0.203125 0 0  0.2109375 0 0  0.21875 0 0  0.2265625 0 0  0.234375 0 0  0.2421875 0 0  0.25 0 0  0.2578125 0 0  0.265625 0 0  0.2734375 0 0  0.28125 0 0  0.2890625 0 0  0.296875 0 0  0.3046875 0 0  0.3125 0 0  0.3203125 0 0  0.328125 0 0  0.3359375 0 0  0.34375 0 0  0.3515625 0 0  0.359375 0 0  0.3671875 0 0  0.375 0 0  0.3828125 0 0  0.390625 0 0  0.3984375 0 0  0.40625 0 0  0.4140625 0 0  0.421875 0 0  0.4296875 0 0  0.4375 0 0  0.4453125 0 0  0.453125 0 0  0.4609375 0 0  0.46875 0 0  0.4765625 0 0  0.484375 0 0  0.4921875 0 0  0.5 0 0  0.5078125 0 0  0.515625 0 0  0.5234375 0 0  0.53125 0 0  0.5390625 0 0  0.546875 0 0  0.5546875 0 0  0.5625 0 0  0.5703125 0 0  0.578125 0 0  0.5859375 0 0  0.59375 0 0  0.6015625 0 0  0.609375 0 0  0.6171875 0 0  0.625 0 0  0.6328125 0 0  0.640625 0 0  0.6484375 0 0  0.65625 0 0  0.6640625 0 0  0.671875 0 0  0.6796875 0 0  0.6875 0 0  0.6953125 0 0  0.703125 0 0  0.7109375 0 0  0.71875 0 0  0.7265625 0 0  0.734375 0 0  0.7421875 0 0  0.75 0 0  0.7578125 0 0  0.765625 0 0  0.7734375 0 0  0.78125 0 0  0.7890625 0 0  0.796875 0 0  0.8046875 0 0  0.8125 0 0  0.8203125 0 0  0.828125 0 0  0.8359375 0 0  0.84375 0 0  0.8515625 0 0  0.859375 0 0  0.8671875 0 0  0.875 0 0  0.8828125 0 0  0.890625 0 0  0.8984375 0 0  0.90625 0 0  0.9140625 0 0  0.921875 0 0  0.9296875 0 0  0.9375 0 0  0.9453125 0 0  0.953125 0 0  0.9609375 0 0  0.96875 0 0  0.9765625 0 0  0.984375 0 0  0.9921875 0 0  1 0 0  0 0.0078125 0  0.0078125 0.0078125 0  0.015625 0.0078125 0  0.0234375 0.0078125 0  0.03125 0.0078125 0  0.0390625 0.0078125 0  0.046875 0.0078125 0  0.0546875 0.0078125 0  0.0625 0.0078125 0  0.0703125 0.0078125 0  0.078125 0.0078125 0  0.0859375 0.0078125 0  0.09375 0.0078125 0  0.1015625 0.0078125 0  0.109375 0.0078125 0  0.1171875 0.0078125 0  0.125 0.0078125 0  0.1328125 0.0078125 0  0.140625 0.0078125 0  0.1484375 0.0078125 0  0.15625 0.0078125 0  0.1640625 0.0078125 0  0.171875 0.0078125 0  0.1796875 0.0078125 0  0.1875 0.0078125 0  0.1953125 0.0078125 0  0.203125 0.0078125 0  0.2109375 0.0078125 0  0.21875 0.0078125 0  0.2265625 0.0078125 0  0.234375 0.0078125 0  0.2421875 0.0078125 0  0.25 0.0078125 0  0.2578125 0.0078125 0  0.265625 0.0078125 0  0.2734375 0.0078125 0  0.28125 0.0078125 0  0.2890625 0.0078125 0  0.296875 0.0078125 0  0.3046875 0.0078125 0  0.3125 0.0078125 0  0.3203125 0.0078125 0  0.328125 0.0078125 0  0.3359375 0.0078125 0  0.34375 0.0078125 0  0.3515625 0.0078125 0  0.359375 0.0078125 0  0.3671875 0.0078125 0  0.375 0.0078125 0  0.3828125 0.0078125 0  0.390625 0.0078125 0  0.3984375 0.0078125 0  0.40625 0.0078125 0  0.4140625 0.0078125 0  0.421875 0.0078125 0  0.4296875 0.0078125 0  0.4375 0.0078125 0  0.4453125 0.0078125 0  0.453125 0.0078125 0  0.4609375 0.0078125 0  0.46875 0.0078125 0  0.4765625 0.0078125 0  0.484375 0.0078125 0  0.4921875 0.0078125 0  0.5 0.0078125 0  0.5078125 0.0078125 0  0.515625 0.0078125 0  0.5234375 0.0078125 0  0.53125 0.0078125 0  0.5390625 0.0078125 0  0.546875 0.0078125 0  0.5546875 0.0078125 0  0.5625 0.0078125 0  0.5703125 0.0078125 0  0.578125 0.0078125 0  0.5859375 0.0078125 0  0.59375 0.0078125 0  0.6015625 0.0078125 0  0.609375 0.0078125 0  0.6171875 0.0078125 0  0.625 0.0078125 0  0.6328125 0.0078125 0  0.640625 0.0078125 0  0.6484375 0.0078125 0  0.65625 0.0078125 0  0.6640625 0.0078125 0  0.671875 0.0078125 0  0.6796875 0.0078125 0  0.6875 0.0078125 0  0.6953125 0.0078125 0  0.703125 0.0078125 0  0.7109375 0.0078125 0  0.71875 0.0078125 0  0.7265625 0.0078125 0  0.734375 0.0078125 0  0.7421875 0.0078125 0  0.75 0.0078125 0  0.7578125 0.0078125 0  0.765625 0.0078125 0  0.7734375 0.0078125 0  0.78125 0.0078125 0  0.7890625 0.0078125 0  0.796875 0.0078125 0  0.8046875 0.0078125 0  0.8125 0.0078125 0  0.8203125 0.0078125 0  0.828125 0.0078125 0  0.8359375 0.0078125 0  0.84375 0.0078125 0  0.8515625 0.0078125 0  0.859375 0.0078125 0  0.8671875 0.0078125 0  0.875 0.0078125 0  0.8828125 0.0078125 0  0.890625 0.0078125 0  0.8984375 0.0078125 0  0.90625 0.0078125 0  0.9140625 0.0078125 0  0.921875 0.0078125 0  0.9296875 0.0078125 0  0.9375 0.0078125 0  0.9453125 0.0078125 0  0.953125 0.0078125 0  0.9609375 0.0078125 0  0.96875 0.0078125 0  0.9765625 0.0078125 0  0.984375 0.0078125 0  0.9921875 0.0078125 0  1 0.0078125 0  0 0.015625 0  0.0078125 0.015625 0  0.015625 0.015625 0  0.0234375 0.015625 0  0.03125 0.015625 0  0.0390625 0.015625 0  0.046875 0.015625 0  0.0546875 0.015625 0  0.0625 0.015625 0  0.0703125 0.015625 0  0.078125 0.015625 0  0.0859375 0.015625 0  0.09375 0.015625 0  0.1015625 0.015625 0  0.109375 0.015625 0  0.1171875 0.015625 0  0.125 0.015625 0  0.1328125 0.015625 0  0.140625 0.015625 0  0.1484375 0.015625 0  0.15625 0.015625 0  0.1640625 0.015625 0  0.171875 0.015625 0  0.1796875 0.015625 0  0.1875 0.015625 0  0.1953125 0.015625 0  0.203125 0.015625 0  0.2109375 0.015625 0  0.21875 0.015625 0  0.2265625 0.015625 0  0.234375 0.015625 0  0.2421875 0.015625 0  0.25 0.015625 0  0.2578125 0.015625 0  0.265625 0.015625 0  0.2734375 0.015625 0  0.28125 0.015625 0  0.2890625 0.015625 0  0.296875 0.015625 0  0.3046875 0.015625 0  0.3125 0.015625 0  0.3203125 0.015625 0  0.328125 0.015625 0  0.3359375 0.015625 0  0.34375 0.015625 0  0.3515625 0.015625 0  0.359375 0.015625 0  0.3671875 0.015625 0  0.375 0.015625 0  0.3828125 0.015625 0  0.390625 0.015625 0  0.3984375 0.015625 0  0.40625 0.015625 0  0.4140625 0.015625 0  0.421875 0.015625 0  0.4296875 0.015625 0  0.4375 0.015625 0  0.4453125 0.015625 0  0.453125 0.015625 0  0.4609375 0.015625 0  0.46875 0.015625 0  0.4765625 0.015625 0  0.484375 0.015625 0  0.4921875 0.015625 0  0.5 0.015625 0  0.5078125 0.015625 0  0.515625 0.015625 0  0.5234375 0.015625 0  0.53125 0.015625 0  0.5390625 0.015625 0  0.546875 0.015625 0  0.5546875 0.015625 0  0.5625 0.015625 0  0.5703125 0.015625 0  0.578125 0.015625 0  0.5859375 0.015625 0  0.59375 0.015625 0  0.6015625 0.015625 0  0.609375 0.015625 0  0.6171875 0.015625 0  0.625 0.015625 0  0.6328125 0.015625 0  0.640625 0.015625 0  0.6484375 0.015625 0  0.65625 0.015625 0  0.6640625 0.015625 0  0.671875 0.015625 0  0.6796875 0.015625 0  0.6875 0.015625 0  0.6953125 0.015625 0  0.703125 0.015625 0  0.7109375 0.015625 0  0.71875 0.015625 0  0.7265625 0.015625 0  0.734375 0.015625 0  0.7421875 0.015625 0  0.75 0.015625 0  0.7578125 0.015625 0  0.765625 0.015625 0  0.7734375 0.015625 0  0.78125 0.015625 0  0.7890625 0.015625 0  0.796875 0.015625 0  0.8046875 0.015625 0  0.8125 0.015625 0  0.8203125 0.015625 0  0.828125 0.015625 0  0.8359375 0.015625 0  0.84375 0.015625 0  0.8515625 0.015625 0  0.859375 0.015625 0  0.8671875 0.015625 0  0.875 0.015625 0  0.8828125 0.015625 0  0.890625 0.015625 0  0.8984375 0.015625 0  0.90625 0.015625 0  0.9140625 0.015625 0  0.921875 0.015625 0  0.9296875 0.015625 0  0.9375 0.015625 0  0.9453125 0.015625 0  0.953125 0.015625 0  0.9609375 0.015625 0  0.96875 0.015625 0  0.9765625 0.015625 0  0.984375 0.015625 0  0.9921875 0.015625 0  1 0.015625 0  0 0.0234375 0  0.0078125 0.0234375 0  0.015625 0.0234375 0  0.0234375 0.0234375 0  0.03125 0.0234375 0  0.0390625 0.0234375 0  0.046875 0.0234375 0  0.0546875 0.0234375 0  0.0625 0.0234375 0  0.0703125 0.0234375 0  0.078125 0.0234375 0  0.0859375 0.0234375 0  0.09375 0.0234375 0  0.1015625 0.0234375 0  0.109375 0.0234375 0  0.1171875 0.0234375 0  0.125 0.0234375 0  0.1328125 0.0234375 0  0.140625 0.0234375 0  0.1484375 0.0234375 0  0.15625 0.0234375 0  0.1640625 0.0234375 0  0.171875 0.0234375 0  0.1796875 0.0234375 0  0.1875 0.0234375 0  0.1953125 0.0234375 0  0.203125 0.0234375 0  0.2109375 0.0234375 0  0.21875 0.0234375 0  0.2265625 0.0234375 0  0.234375 0.0234375 0  0.2421875 0.0234375 0  0.25 0.0234375 0  0.2578125 0.0234375 0  0.265625 0.0234375 0  0.2734375 0.0234375 0  0.28125 0.0234375 0  0.2890625 0.0234375 0  0.296875 0.0234375 0  0.3046875 0.0234375 0  0.3125 0.0234375 0  0.3203125 0.0234375 0  0.328125 0.0234375 0  0.3359375 0.0234375 0  0.34375 0.0234375 0  0.3515625 0.0234375 0  0.359375 0.0234375 0  0.3671875 0.0234375 0  0.375 0.0234375 0  0.3828125 0.0234375 0  0.390625 0.0234375 0  0.3984375 0.0234375 0  0.40625 0.0234375 0  0.4140625 0.0234375 0  0.421875 0.0234375 0  0.4296875 0.0234375 0  0.4375 0.0234375 0  0.4453125 0.0234375 0  0.453125 0.0234375 0  0.4609375 0.0234375 0  0.46875 0.0234375 0  0.4765625 0.0234375 0  0.484375 0.0234375 0  0.4921875 0.0234375 0  0.5 0.0234375 0  0.5078125 0.0234375 0  0.515625 0.0234375 0  0.5234375 0.0234375 0  0.53125 0.0234375 0  0.5390625 0.0234375 0  0.546875 0.0234375 0  0.5546875 0.0234375 0  0.5625 0.0234375 0  0.5703125 0.0234375 0  0.578125 0.0234375 0  0.5859375 0.0234375 0  0.59375 0.0234375 0  0.6015625 0.0234375 0  0.609375 0.0234375 0  0.6171875 0.0234375 0  0.625 0.0234375 0  0.6328125 0.0234375 0  0.640625 0.0234375 0  0.6484375 0.0234375 0  0.65625 0.0234375 0  0.6640625 0.0234375 0  0.671875 0.0234375 0  0.6796875 0.0234375 0  0.6875 0.0234375 0  0.6953125 0.0234375 0  0.703125 0.0234375 0  0.7109375 0.0234375 0  0.71875 0.0234375 0  0.7265625 0.0234375 0  0.734375 0.0234375 0  0.7421875 0.0234375 0  0.75 0.0234375 0  0.7578125 0.0234375 0  0.765625 0.0234375 0  0.7734375 0.0234375 0  0.78125 0.0234375 0  0.7890625 0.0234375 0  0.796875 0.0234375 0  0.8046875 0.0234375 0  0.8125 0.0234375 0  0.8203125 0.0234375 0  0.828125 0.0234375 0  0.8359375 0.0234375 0  0.84375 0.0234375 0  0.8515625 0.0234375 0  0.859375 0.0234375 0  0.8671
[...]
<CellData  Scalars="f_2085"> 
<DataArray  type="Float64"  Name="f_2085"  format="ascii">3.2280756588226521e-10   3.2280756588224712e-10   4.6752289713532315e-10   6.0073988369003174e-10   6.3226210492696369e-10   8.3700845636827092e-10   8.1747688784476412e-10   1.1029163560713541e-09   1.0229640441755206e-09   1.3980916213975587e-09   1.2482685423879836e-09   1.7218377084499420e-09   1.4928041660304428e-09   2.0732795026546661e-09   1.7559068671223039e-09   2.4514347994712860e-09   2.0368603721604325e-09   2.8552501935120305e-09   2.3349090423007127e-09   3.2836191714753971e-09   2.6492647305940329e-09   3.7353915623616037e-09   2.9791107631640934e-09   4.2093788442150783e-09   3.3236045272564786e-09   4.7043574820852475e-09   3.6818793896380697e-09   5.2190713563914458e-09   4.0530463087829440e-09   5.7522338061166144e-09   4.4361953276521121e-09   6.3025295499322059e-09   4.8303970444316328e-09   6.8686166173943927e-09   5.2347041117373920e-09   7.4491283551896102e-09   5.6481527893938152e-09   8.0426755379787922e-09   6.0697645622584479e-09   8.6478485944728888e-09   6.4985478264252580e-09   9.2632199494812434e-09   6.9334996429449778e-09   9.8873464766629245e-09   7.3736075554168354e-09   1.0518772054232098e-08   7.8178514665742865e-09   1.1156030214004946e-08   8.2652055678992588e-09   1.1797646873757186e-08   8.7146403159922568e-09   1.2442143142045088e-08   9.1651244492143278e-09   1.3088038185299988e-08   9.6156270377664910e-09   1.3733852146377400e-08   1.0065119560639480e-08   1.4378109104193801e-08   1.0512578002717536e-08   1.5019340064443351e-08   1.0956984965306219e-08   1.5656085971080511e-08   1.1397331783592774e-08   1.6286900728867103e-08   1.1832620644566985e-08   1.6910354227381201e-08   1.2261866698880037e-08   1.7525035356892046e-08   1.2684100160455130e-08   1.8129555006890082e-08   1.3098368387661308e-08   1.8722549038301434e-08   1.3503737939787919e-08   1.9302681220378900e-08   1.3899296603291927e-08   1.9868646123698594e-08   1.4284155381354514e-08   2.0419171960942888e-08   1.4657450441850118e-08   2.0953023366854277e-08   1.5018345017540848e-08   2.1469004110122548e-08   1.5366031253580882e-08   2.1965959728648999e-08   1.5699731996918768e-08   2.2442780081379306e-08   1.6018702522723712e-08   2.2898401809157455e-08   1.6322232192845824e-08   2.3331810697809455e-08   1.6609646042035573e-08   2.3742043936784862e-08   1.6880306287014336e-08   2.4128192267116672e-08   1.7133613754712483e-08   2.4489402012547196e-08   1.7369009225414444e-08   2.4824876988325222e-08   1.7585974686874834e-08   2.5133880282352037e-08   1.7784034496710202e-08   2.5415735903065658e-08   1.7962756448766054e-08   2.5669830290899863e-08   1.8121752741171930e-08   2.5895613687050716e-08   1.8260680843231600e-08   2.6092601357376233e-08   1.8379244258400583e-08   2.6260374667115620e-08   1.8477193181516056e-08   2.6398582003269083e-08   1.8554325048158769e-08   2.6506939542340304e-08   1.8610484974409121e-08   2.6585231860734387e-08   1.8645566086024925e-08   2.6633312386143750e-08   1.8659509735420371e-08   2.6651103688396277e-08   1.8652305606192504e-08   2.6638597608402880e-08   1.8623991704298313e-08   2.6595855225052332e-08   1.8574654235934365e-08   2.6523006659318317e-08   1.8504427372092417e-08   2.6420250716045315e-08   1.8413492900192337e-08   2.6287854363906725e-08   1.8302079763258407e-08   2.6126152054488869e-08   1.8170463488207482e-08   2.5935544881805537e-08   1.8018965503560286e-08   2.5716499584670818e-08   1.7847952348797143e-08   2.5469547393052272e-08   1.7657834777049935e-08   2.5195282721909835e-08   1.7449066752654906e-08   2.4894361715438468e-08   1.7222144346615285e-08   2.4567500644418998e-08   1.6977604532111105e-08   2.4215474161265555e-08   1.6716023882817806e-08   2.3839113416383936e-08   1.6438017177512900e-08   2.3439304040244845e-08   1.6144235913679201e-08   2.3016983996359676e-08   1.5835366734327703e-08   2.2573141309735003e-08   1.5512129770954527e-08   2.2108811676843841e-08   1.5175276907482728e-08   2.1625075962134670e-08   1.4825589968474808e-08   2.1123057587817319e-08   1.4463878836505096e-08   2.0603919822409370e-08   1.4090979502865645e-08   2.0068862975288633e-08   1.3707752056387370e-08   1.9519121503280653e-08   1.3315078615117979e-08   1.8955961036789813e-08   1.2913861205597125e-08   1.8380675332318114e-08   1.2505019595067854e-08   1.7794583158513353e-08   1.2089489081286344e-08   1.7199025123569556e-08   1.1668218245457046e-08   1.6595360451094751e-08   1.1242166673372145e-08   1.5984963712306817e-08   1.0812302649991655e-08   1.5369221522403631e-08   1.0379600832713186e-08   1.4749529208387087e-08   9.9450399087561785e-09   1.4127287456502716e-08   9.5096002416597691e-09   1.3503898946915599e-08   9.0742615123370296e-09   1.2880764983236307e-08   8.6400003593366184e-09   1.2259282124496103e-08   8.2077880237912944e-09   1.1640838827031561e-08   7.7785880034091379e-09   1.1026812103561088e-08   7.3533537202871554e-09   1.0418564206594160e-08   6.9330262067439233e-09   9.8174393426645290e-09   6.5185318133482251e-09   9.2247604240698222e-09   6.1107799424232599e-09   8.6418258640270596e-09   5.7106608104609595e-09   8.0699064205342578e-09   5.3190432416812887e-09   7.5102420939951603e-09   4.9367724945885738e-09   6.9640390823754542e-09   4.5646681223008240e-09   6.4324667970497479e-09   4.2035218662387587e-09   5.9166549411335761e-09   3.8540955812344450e-09   5.4176906504631061e-09   3.5171191882530490e-09   4.9366156956448367e-09   3.1932886480773748e-09   4.4744237408018388e-09   2.8832639462046049e-09   4.0320576514531515e-09   2.5876670741595588e-09   3.6104068394764039e-09   2.3070799860920613e-09   3.2103046269088067e-09   2.0420425003628329e-09   2.8325256019230905e-09   1.7930501023608683e-09   2.4777829283767264e-09   1.5605515852977102e-09   2.1467255527808480e-09   1.3449464355823955e-09   1.8399352266914740e-09   1.1465818226314561e-09   1.5579232230442548e-09   9.6574897662924139e-10   1.3011265626043052e-09   8.0267860940947842e-10   1.0699034658802743e-09   6.5753480694281679e-10   8.6452757540258091e-10   5.3040640032581540e-10   6.8518019436643119e-10   4.2129398707220590e-10   5.3193923663535626e-10   3.3008898875575119e-10   4.0476250943027870e-10   2.5653692838263665e-10   3.0346070703186742e-10   2.0016594202225813e-10   2.2765038035011931e-10   1.6012687751166929e-10   1.7666414544584068e-10   1.3475702861026020e-10   1.4935782320277245e-10   9.3959648728862605e-11   1.4363246037216774e-10   6.0073988369004260e-10   4.6752289713532128e-10   8.1975629820117854e-10   8.1975629820100617e-10   1.0714582855000595e-09   1.0687232901342477e-09   1.3538441727752035e-09   1.3497204860201091e-09   1.6656201863520234e-09   1.6606823711797464e-09   2.0056453852674986e-09   2.0001530262562008e-09   2.3728167497946891e-09   2.3668832474656181e-09   2.7660272250562133e-09   2.7596957856256112e-09   3.1841487851944556e-09   3.1774276559779469e-09   3.6260259003391793e-09   3.6189052560015084e-09   4.0904732526941381e-09   4.0829336648059924e-09   4.5762752518901284e-09   4.5682921596162017e-09   5.0821864095289886e-09   5.0737326063198985e-09   5.6069322053640993e-09   5.5979792963283032e-09   6.1492102907727674e-09   6.1397295925554329e-09   6.7076919561465457e-09   6.6976550824767916e-09   7.2810238205600937e-09   7.2704030834840464e-09   7.8678297154915725e-09   7.8565984143431744e-09   8.4667127404313112e-09   8.4548453797087440e-09   9.0762574719514427e-09   9.0637299319742009e-09   9.6950323091917406e-09   9.6818219841849070e-09   1.0321591940789717e-08   1.0307677853032586e-08   1.0954479918818729e-08   1.0939842814486603e-08   1.1592231326715705e-08   1.1576853756749237e-08   1.2233375528253295e-08   1.2217241916760461e-08   1.2876438985859743e-08   1.2859535687202467e-08   1.3519948136661597e-08   1.3502263482609054e-08   1.4162432314961644e-08   1.4143956652316353e-08   1.4802426710847194e-08   1.4783152430192320e-08   1.5438475354117607e-08   1.5418396910147824e-08   1.6069134113600502e-08   1.6048248037229307e-08   1.6692973702115222e-08   1.6671278604759303e-08   1.7308582677210950e-08   1.7286079247497947e-08   1.7914570428431849e-08   1.7891261421480959e-08   1.8509570142006953e-08   1.8485460361690061e-08   1.9092241733878971e-08   1.9067338008172607e-08   1.9661274742395828e-08   1.9635585892191964e-08   2.0215391172344713e-08   2.0188927973832585e-08   2.0753348281522738e-08   2.0726123422674807e-08   2.1273941302666650e-08   2.1245969333698139e-08   2.1776006092030766e-08   2.1747303370582294e-08   2.2258421697796957e-08   2.2229006328740986e-08   2.2720112840533200e-08   2.2690004610933212e-08   2.3160052299178168e-08   2.3129272608658886e-08   2.3577263195351855e-08   2.3545834982089774e-08   2.3970821170005140e-08   2.3938768832774123e-08   2.4339856446009088e-08   2.4307205762542473e-08   2.4683555771155546e-08   2.4650333813266484e-08   2.5001164236047422e-08   2.4967399281502982e-08   2.5291986961359222e-08   2.5257708403612218e-08   2.5555390650880874e-08   2.5520628905461248e-08   2.5790805004299668e-08   2.5755591414327901e-08   2.5997723987186129e-08   2.5962090726390832e-08   2.6175706953850880e-08   2.6139686928617811e-08   2.6324379619729382e-08   2.6288006370118020e-08   2.6443434880923814e-08   2.6406742480785903e-08   2.6532633477987471e-08   2.6495656435008293e-08   2.6591804502218932e-08   2.6554577657729530e-08   2.6620845742696151e-08   2.6583404171874668e-08   2.6619723872668086e-08   2.6582102785378047e-08   2.6588474474847866e-08   2.6550709117246539e-08   2.6527201904899953e-08   2.6489327462530078e-08   2.6436078993258393e-08   2.6398130495514996e-08   2.6315346585752491e-08   2.6277358812186077e-08   2.6165312923713576e-08   2.6127320312564173e-08   2.5986352864879622e-08   2.5948389424083519e-08   2.5778906947177059e-08   2.5741006167681872e-08   2.5543480296460109e-08   2.5505675069000636e-08   2.5280641381546747e-08   2.5242963916366741e-08   2.4991020619304005e-08   2.4953502369241884e-08   2.4675308832303004e-08   2.4637980420024331e-08   2.4334255563521788e-08   2.4297146712307966e-08   2.3968667251557682e-08   2.3931806720350087e-08   2.3579405270557748e-08   2.3542820793691937e-08   2.3167383839984850e-08   2.3131102071042020e-08   2.2733567808591301e-08   2.2697614269579689e-08   2.2278970318543615e-08   2.2243369353691039e-08   2.1804650354539421e-08   2.1769425089688998e-08   2.1311710184577571e-08   2.1276882491522818e-08   2.0801292697735306e-08   2.0766883164569127e-08   2.0274578646029675e-08   2.0240606552825942e-08   1.9732783796314602e-08   1.9699267097134634e-08   1.9177155999672748e-08   1.9144111310273256e-08   1.8608972184914286e-08   1.8576414776940709e-08   1.8029535283343698e-08   1.7997479084966652e-08   1.7440171092526863e-08   1.7408628695427200e-08   1.6842225086004657e-08   1.6811207759438174e-08   1.6237059176831813e-08   1.6206576888538771e-08   1.5626048442750675e-08   1.5596109886937061e-08   1.5010577820101047e-08   1.4981190453119529e-08   1.4392038774733864e-08   1.4363208858149025e-08   1.3771825957451563e-08   1.3743558609303259e-08   1.3151333851546255e-08   1.3123633105820054e-08   1.2531953420150746e-08   1.2504822294992750e-08   1.1915068760728757e-08   1.1888509335844519e-08   1.1302053774091120e-08   1.1276067277938153e-08   1.0694268855247310e-08   1.0668855762441510e-08   1.0093057612369485e-08   1.0068217752540906e-08   9.4997436210241684e-09   9.4754762996404958e-09   8.9156272193960839e-09   8.8919313520265991e-09   8.3419823501829969e-09   8.3188566115965268e-09   7.7800534543824332e-09   7.7574964441491462e-09   7.2310524210004429e-09   7.2090628480038506e-09   6.6961555963458130e-09   6.6747324848533710e-09   6.1765008550292203e-09   6.1556437759237151e-09   5.6731847336954594e-09   5.6528940652975602e-09   5.1872596265715853e-09   5.1675368507310829e-09   4.7197310397610067e-09   4.7005790806777491e-09   4.2715548982409894e-09   4.2529785136704416e-09   3.8436348956914981e-09   3.8256411332684800e-09   3.4368198719598007e-09   3.4194186078660200e-09   3.0519011960421581e-09   3.0351057792849012e-09   2.6896101223382629e-09   2.6734381568777637e-09   2.3506150740127496e-09   2.3350893841190081e-09   2.0355187867146804e-09   2.0206686306569858e-09   1.7448552156148719e-09   1.7307178433181410e-09   1.4790860624390325e-09   1.4657087609656864e-09   1.2385967073651296e-09   1.2260395567104387e-09   1.0236912153786698e-09   1.0120309091738631e-09   8.3458589806158831e-10   8.2392121291350217e-10   6.7140059392450271e-10   6.6186050251103298e-10   5.3414628403515519e-10   5.2590247121038295e-10   4.2270670530022214e-10   4.1599371750195964e-10   3.3680996362675409e-10   3.3195916364088250e-10   2.7598347521666816e-10   2.7348311493169338e-10   2.3948332783958501e-10   2.4009024654448931e-10   2.2621316599586683e-10   2.3116207259171322e-10   1.8852756142417362e-10   2.4625343452021048e-10   8.3700845636813422e-10   6.3226210492650750e-10   1.0687232901339087e-09   1.0714582854987906e-09   1.3348644043941050e-09   1.3348644043935703e-09   1.6322777747487004e-09   1.6305274583646220e-09   1.9590621368880709e-09   1.9560906731819379e-09   2.3137423513616462e-09   2.3098576885891764e-09   2.6950129175195107e-09   2.6903978417377907e-09   3.1016372839292290e-09   3.0963981097725591e-09   3.5324014488343056e-09   3.5265968845804038e-09   3.9860903979035578e-09   3.9797493448810236e-09   4.4614758262710831e-09   4.4546083810805746e-09   4.9573098202609988e-09   4.9499141255463048e-09   5.4723218159049537e-09   5.4643883980891118e-09   6.0052174433902732e-09   5.9967320226650611e-09   6.5546785181840833e-09   6.5456238766436103e-09   7.1193637717874163e-09   7.1097210296030670e-09   7.6979100890671836e-09   7.6876596002283943e-09   8.2889341118941255e-09   8.2780561096740752e-09   8.8910341204173265e-09   8.8795091942053052e-09   9.5027921328178207e-09   9.4906015882181381e-09   1.0122776181831152e-08   1.0109902318262357e-08   1.0749542737013302e-08   1.0735969065051926e-08   1.1381639248535277e-08   1.1367350662290303e-08   1.2017606792647412e-08   1.2002589707475607e-08   1.2655982801793859e-08   1.2640225264793643e-08   1.3295303864951238e-08   1.3278795643054970e-08   1.3934108584012279e-08   1.3916841233814886e-08   1.4570940474688281e-08   1.4552907396304407e-08   1.5204350899850369e-08   1.5185547377163203e-08   1.5832902024428144e-08   1.5813325253190495e-08   1.6455169781633522e-08   1.6434818886506376e-08   1.7069746840161123e-08   1.7048622881843210e-08   1.7675245562699650e-08   1.7653351535915743e-08   1.8270300946558356e-08   1.8247641769410180e-08   1.8853573536926914e-08   1.8830156032474529e-08   1.9423752304141757e-08   1.9399585174452330e-08   1.9979557476254405e-08   1.9954651269552169e-08   2.0519743318401215e-08   2.0494110389704076e-08   2.1043100851041660e-08   2.1016755316714993e-08   2.1548460499145977e-08   2.1521418185661786e-08   2.2034694664505354e-08   2.2006973051951721e-08   2.2500720214105584e-08   2.2472338374642166e-08   2.2945500877459481e-08   2.2916479409176218e-08   2.3368049545651028e-08   2.3338410502116170e-08   2.3767430466404791e-08   2.3737197282326880e-08   2.4142761328260273e-08   2.4111958741673686e-08   2.4493215228525551e-08   2.4461869199489056e-08   2.4818022519021700e-08   2.4786160145731508e-08   2.5116472524950082e-08   2.5084121956958243e-08   2.5387915130996198e-08   2.5355105480738633e-08   2.5631762232200435e-08   2.5598523483819644e-08   2.5847489042721139e-08   2.5813851960480270e-08   2.6034635261348122e-08   2.6000631295751851e-08   2.6192806088596489e-08   2.6158467282260457e-08   2.6321673093155367e-08   2.6287031985975367e-08   2.6420974925280071e-08   2.6386064459292905e-08   2.6490517874307643e-08   2.6455371298811555e-08   2.6530176269172492e-08   2.6494827045999972e-08   2.6539892720007562e-08   2.6504374429779419e-08   2.6519678200105815e-08   2.6484024449368781e-08   2.6469611968026154e-08   2.6433856297594042e-08   2.6389841328910476e-08   2.6354017124064129e-08   2.6280581236005426e-08   2.6244721638365337e-08   2.6142113732797504e-08   2.6106251554417626e-08   2.5974787236772418e-08   2.5938954876716562e-08   2.5779015666270733e-08   2.5743245029928410e-08   2.5555277412824872e-08   2.5519599833857040e-08   2.5304114160329254e-08   2.5268560326385420e-08   2.5026129554647166e-08   2.4990729436041972e-08   2.4721987726392603e-08   2.4686770508524377e-08   2.4392411669835163e-08   2.4357405689766369e-08   2.4038181482498780e-08   2.4003414169312919e-08   2.3660132469259297e-08   2.3625630288809890e-08   2.3259153114923570e-08   2.3224941519424455e-08   2.2836182931288974e-08   2.2802286312907705e-08   2.2392210182517273e-08   2.2358651832699323e-08   2.1928269495291477e-08   2.1895071568417055e-08   2.1445439358621457e-08   2.1412622841370754e-08   2.0944839520172887e-08   2.0912424205911633e-08   2.0427628284428009e-08   2.0395632753543004e-08   1.9894999720146065e-08   1.9863441325686301e-08   1.9348180782771132e-08   1.9317075642388537e-08   1.8788428359821862e-08   1.8757791353378319e-08   1.8217026245416406e-08   1.8186871018965678e-08   1.7635282051518916e-08   1.7605621027702564e-08   1.7044524063621073e-08   1.7015368458352373e-08   1.6446098047675059e-08   1.6417457893894566e-08   1.5841364016475843e-08   1.5813248194579969e-08   1.5231692962905491e-08   1.5204109238337813e-08   1.4618463567393819e-08   1.4591418635916727e-08   1.4003058888098641e-08   1.3976558428388336e-08   1.3386863040604857e-08   1.3360911775223978e-08   1.2771257875408389e-08   1.2745859639952498e-08   1.2157619660250269e-08   1.2132777481573141e-08   1.1547315775159568e-08   1.1523031958884617e-08   1.0941701426985557e-08   1.0917977655323227e-08   1.0342116390966016e-08   1.0318953831077099e-08   9.7498817855082026e-09   9.7272812101323292e-09   9.1662968872294211e-09   9.1442588079391030e-09   8.5926359918540041e-09   8.5711608068990199e-09   8.0301453267968764e-09   8.0092334850442907e-09   7.4800400203158563e-09   7.4596922034967950e-09   6.9435011316281513e-09   6.9237184575200405e-09   6.4216727453938326e-09   6.4024569952749128e-09   5.9156591330826133e-09   5.8970130076439419e-09   5.4265219822143614e-09   5.4084493912462045e-09   4.9552776933699178e-09   4.9377840859210691e-09   4.5028947421363961e-09   4.4859874859643139e-09   4.0702911014018382e-09   4.0539799229271673e-09   3.6583317155074170e-09   3.6426292151949460e-09   3.2678260138488388e-09   3.2527482767915365e-09   2.8995254455528946e-09   2.8850927737778792e-09   2.5541210095536186e-09   2.5403588122720592e-09   2.2322407437471320e-09   2.2191806354881083e-09   1.9344471229315914e-09   1.9221282996700490e-09   1.6612342955927163e-09   1.6497052886383317e-09   1.4130250625522854e-09   1.4023460145316821e-09   1.1901674631162345e-09   1.1804131381652894e-09   9.9293078399618415e-10   9.8419462847913832e-10   8.2150074122995708e-10   8.1390047282014024e-10   6.7597351083399143e-10   6.6965896529868497e-10   5.5634822504879042e-10   5.5151258269403369e-10   4.6251759617664205e-10   4.5941372748462010e-10   3.9425679928970782e-10   3.9322145049676297e-10   3.5121307468811405e-10   3.5270301687223214e-10   3.3291072040545746e-10   3.3755443854314522e-10   3.3885577229874204e-10   3.4749604134418088e-10   2.9281052838476750e-10   3.8266043730264064e-10   1.1029163560695496e-09   8.1747688784358197e-10   1.3497204860193694e-09   1.3538441727738630e-09   1.6305274583644497e-09   1.6322777747479891e-09   1.9423349848662044e-09   1.9423349848662544e-09   2.2831108928707365e-09   2.2817705451736462e-09   2.6512505687711957e-09   2.6488362069362202e-09   3.0453416331752926e-09   3.0420305289073591e-09   3.4640618279345794e-09   3.4599723319022547e-09   3.9061293813649586e-09   3.9013390059256673e-09   4.3702761502405705e-09   4.3648336749415523e-09   4.8552322014860389e-09   4.8491661942932373e-09   5.3597168664498741e-09   5.3530417320229459e-09   5.8824337029474301e-09   5.8751539724211176e-09   6.4220679043687491e-09   6.4141812852127869e-09   6.9772852873