<?xml version="1.0"?>
<VTKFile type="UnstructuredGrid"  version="0.1"  >
<UnstructuredGrid>
<Piece  NumberOfPoints="16641" NumberOfCells="32768">
<Points>
<DataArray  type="Float64"  NumberOfComponents="3"  format="ascii">0 0 0  0.0078125 0 0  0.015625 0 0  0.0234375 0 0  0.03125 0 0  0.0390625 0 0  0.046875 0 0  0.0546875 0 0  0.0625 0 0  0.0703125 0 0  0.078125 0 0  0.0859375 0 0  0.09375 0 0  0.1015625 0 0  0.109375 0 0  0.1171875 0 0  0.125 0 0  0.1328125 0 0  0.140625 0 0  0.1484375 0 0  0.15625 0 0  0.1640625 0 0  0.171875 0 0  0.1796875 0 0  0.1875 0 0  0.1953125 0 0  0.203125 0 0  0.2109375 0 0  0.21875 0 0  0.2265625 0 0  0.234375 0 0  0.2421875 0 0  0.25 0 0  0.2578125 0 0  0.265625 0 0  0.2734375 0 0  0.28125 0 0  0.2890625 0 0  0.296875 0 0  0.3046875 0 0  0.3125 0 0  0.3203125 0 0  0.328125 0 0  0.3359375 0 0  0.34375 0 0  0.3515625 0 0  0.359375 0 0  0.3671875 0 0  0.375 0 0  0.3828125 0 0  0.390625 0 0  0.3984375 0 0  0.40625 0 0  0.4140625 0 0  0.421875 0 0  0.4296875 0 0  0.4375 0 0  0.4453125 0 0  0.453125 0 0  0.4609375 0 0  0.46875 0 0  0.4765625 0 0  0.484375 0 0  0.4921875 0 0  0.5 0 0  0.5078125 0 0  0.515625 0 0  0.5234375 0 0  0.53125 0 0  0.5390625 0 0  0.546875 0 0  0.5546875 0 0  0.5625 0 0  0.5703125 0 0  0.578125 0 0  0.5859375 0 0  0.59375 0 0  0.6015625 0 0  0.609375 0 0  0.6171875 0 0  0.625 0 0  0.6328125 0 0  0.640625 0 0  0.6484375 0 0  0.65625 0 0  0.6640625 0 0  0.671875 0 0  0.6796875 0 0  0.6875 0 0  0.6953125 0 0  0.703125 0 0  0.7109375 0 0  0.71875 0 0  0.7265625 0 0  0.734375 0 0  0.7421875 0 0  0.75 0 0  0.7578125 0 0  0.765625 0 0  0.7734375 0 0  0.78125 0 0  0.7890625 0 0  0.796875 0 0  0.8046875 0 0  0.8125 0 0  0.8203125 0 0  0.828125 0 0  0.8359375 0 0  0.84375 0 0  0.8515625 0 0  0.859375 0 0  0.8671875 0 0  0.875 0 0  0.8828125 0 0  0.890625 0 0  0.8984375 0 0  0.90625 0 0  0.9140625 0 0  0.921875 0 0  0.9296875 0 0  0.9375 0 0  0.9453125 0 0  0.953125 0 0  0.9609375 0 0  0.96875 0 0  0.9765625 0 0  0.984375 0 0  0.9921875 0 0  1 0 0  0 0.0078125 0  0.0078125 0.0078125 0  0.015625 0.0078125 0  0.0234375 0.0078125 0  0.03125 0.0078125 0  0.0390625 0.0078125 0  0.046875 0.0078125 0  0.0546875 0.0078125 0  0.0625 0.0078125 0  0.0703125 0.0078125 0  0.078125 0.0078125 0  0.0859375 0.0078125 0  0.09375 0.0078125 0  0.1015625 0.0078125 0  0.109375 0.0078125 0  0.1171875 0.0078125 0  0.125 0.0078125 0  0.1328125 0.0078125 0  0.140625 0.0078125 0  0.1484375 0.0078125 0  0.15625 0.0078125 0  0.1640625 0.0078125 0  0.171875 0.0078125 0  0.1796875 0.0078125 0  0.1875 0.0078125 0  0.1953125 0.0078125 0  0.203125 0.0078125 0  0.2109375 0.0078125 0  0.21875 0.0078125 0  0.2265625 0.0078125 0  0.234375 0.0078125 0  0.2421875 0.0078125 0  0.25 0.0078125 0  0.2578125 0.0078125 0  0.265625 0.0078125 0  0.2734375 0.0078125 0  0.28125 0.0078125 0  0.2890625 0.0078125 0  0.296875 0.0078125 0  0.3046875 0.0078125 0  0.3125 0.0078125 0  0.3203125 0.0078125 0  0.328125 0.0078125 0  0.3359375 0.0078125 0  0.34375 0.0078125 0  0.3515625 0.0078125 0  0.359375 0.0078125 0  0.3671875 0.0078125 0  0.375 0.0078125 0  0.3828125 0.0078125 0  0.390625 0.0078125 0  0.3984375 0.0078125 0  0.40625 0.0078125 0  0.4140625 0.0078125 0  0.421875 0.0078125 0  0.4296875 0.0078125 0  0.4375 0.0078125 0  0.4453125 0.0078125 0  0.453125 0.0078125 0  0.4609375 0.0078125 0  0.46875 0.0078125 0  0.4765625 0.0078125 0  0.484375 0.0078125 0  0.4921875 0.0078125 0  0.5 0.0078125 0  0.5078125 0.0078125 0  0.515625 0.0078125 0  0.5234375 0.0078125 0  0.53125 0.0078125 0  0.5390625 0.0078125 0  0.546875 0.0078125 0  0.5546875 0.0078125 0  0.5625 0.0078125 0  0.5703125 0.0078125 0  0.578125 0.0078125 0  0.5859375 0.0078125 0  0.59375 0.0078125 0  0.6015625 0.0078125 0  0.609375 0.0078125 0  0.6171875 0.0078125 0  0.625 0.0078125 0  0.6328125 0.0078125 0  0.640625 0.0078125 0  0.6484375 0.0078125 0  0.65625 0.0078125 0  0.6640625 0.0078125 0  0.671875 0.0078125 0  0.6796875 0.0078125 0  0.6875 0.0078125 0  0.6953125 0.0078125 0  0.703125 0.0078125 0  0.7109375 0.0078125 0  0.71875 0.0078125 0  0.7265625 0.0078125 0  0.734375 0.0078125 0  0.7421875 0.0078125 0  0.75 0.0078125 0  0.7578125 0.0078125 0  0.765625 0.0078125 0  0.7734375 0.0078125 0  0.78125 0.0078125 0  0.7890625 0.0078125 0  0.796875 0.0078125 0  0.8046875 0.0078125 0  0.8125 0.0078125 0  0.8203125 0.0078125 0  0.828125 0.0078125 0  0.8359375 0.0078125 0  0.84375 0.0078125 0  0.8515625 0.0078125 0  0.859375 0.0078125 0  0.8671875 0.0078125 0  0.875 0.0078125 0  0.8828125 0.0078125 0  0.890625 0.0078125 0  0.8984375 0.0078125 0  0.90625 0.0078125 0  0.9140625 0.0078125 0  0.921875 0.0078125 0  0.9296875 0.0078125 0  0.9375 0.0078125 0  0.9453125 0.0078125 0  0.953125 0.0078125 0  0.9609375 0.0078125 0  0.96875 0.0078125 0  0.9765625 0.0078125 0  0.984375 0.0078125 0  0.9921875 0.0078125 0  1 0.0078125 0  0 0.015625 0  0.0078125 0.015625 0  0.015625 0.015625 0  0.0234375 0.015625 0  0.03125 0.015625 0  0.0390625 0.015625 0  0.046875 0.015625 0  0.0546875 0.015625 0  0.0625 0.015625 0  0.0703125 0.015625 0  0.078125 0.015625 0  0.0859375 0.015625 0  0.09375 0.015625 0  0.1015625 0.015625 0  0.109375 0.015625 0  0.1171875 0.015625 0  0.125 0.015625 0  0.1328125 0.015625 0  0.140625 0.015625 0  0.1484375 0.015625 0  0.15625 0.015625 0  0.1640625 0.015625 0  0.171875 0.015625 0  0.1796875 0.015625 0  0.1875 0.015625 0  0.1953125 0.015625 0  0.203125 0.015625 0  0.2109375 0.015625 0  0.21875 0.015625 0  0.2265625 0.015625 0  0.234375 0.015625 0  0.2421875 0.015625 0  0.25 0.015625 0  0.2578125 0.015625 0  0.265625 0.015625 0  0.2734375 0.015625 0  0.28125 0.015625 0  0.2890625 0.015625 0  0.296875 0.015625 0  0.3046875 0.015625 0  0.3125 0.015625 0  0.3203125 0.015625 0  0.328125 0.015625 0  0.3359375 0.015625 0  0.34375 0.015625 0  0.3515625 0.015625 0  0.359375 0.015625 0  0.3671875 0.015625 0  0.375 0.015625 0  0.3828125 0.015625 0  0.390625 0.015625 0  0.3984375 0.015625 0  0.40625 0.015625 0  0.4140625 0.015625 0  0.421875 0.015625 0  0.4296875 0.015625 0  0.4375 0.015625 0  0.4453125 0.015625 0  0.453125 0.015625 0  0.4609375 0.015625 0  0.46875 0.015625 0  0.4765625 0.015625 0  0.484375 0.015625 0  0.4921875 0.015625 0  0.5 0.015625 0  0.5078125 0.015625 0  0.515625 0.015625 0  0.5234375 0.015625 0  0.53125 0.015625 0  0.5390625 0.015625 0  0.546875 0.015625 0  0.5546875 0.015625 0  0.5625 0.015625 0  0.5703125 0.015625 0  0.578125 0.015625 0  0.5859375 0.015625 0  0.59375 0.015625 0  0.6015625 0.015625 0  0.609375 0.015625 0  0.6171875 0.015625 0  0.625 0.015625 0  0.6328125 0.015625 0  0.640625 0.015625 0  0.6484375 0.015625 0  0.65625 0.015625 0  0.6640625 0.015625 0  0.671875 0.015625 0  0.6796875 0.015625 0  0.6875 0.015625 0  0.6953125 0.015625 0  0.703125 0.015625 0  0.7109375 0.015625 0  0.71875 0.015625 0  0.7265625 0.015625 0  0.734375 0.015625 0  0.7421875 0.015625 0  0.75 0.015625 0  0.7578125 0.015625 0  0.765625 0.015625 0  0.7734375 0.015625 0  0.78125 0.015625 0  0.7890625 0.015625 0  0.796875 0.015625 0  0.8046875 0.015625 0  0.8125 0.015625 0  0.8203125 0.015625 0  0.828125 0.015625 0  0.8359375 0.015625 0  0.84375 0.015625 0  0.8515625 0.015625 0  0.859375 0.015625 0  0.8671875 0.015625 0  0.875 0.015625 0  0.8828125 0.015625 0  0.890625 0.015625 0  0.8984375 0.015625 0  0.90625 0.015625 0  0.9140625 0.015625 0  0.921875 0.015625 0  0.9296875 0.015625 0  0.9375 0.015625 0  0.9453125 0.015625 0  0.953125 0.015625 0  0.9609375 0.015625 0  0.96875 0.015625 0  0.9765625 0.015625 0  0.984375 0.015625 0  0.9921875 0.015625 0  1 0.015625 0  0 0.0234375 0  0.0078125 0.0234375 0  0.015625 0.0234375 0  0.0234375 0.0234375 0  0.03125 0.0234375 0  0.0390625 0.0234375 0  0.046875 0.0234375 0  0.0546875 0.0234375 0  0.0625 0.0234375 0  0.0703125 0.0234375 0  0.078125 0.0234375 0  0.0859375 0.0234375 0  0.09375 0.0234375 0  0.1015625 0.0234375 0  0.109375 0.0234375 0  0.1171875 0.0234375 0  0.125 0.0234375 0  0.1328125 0.0234375 0  0.140625 0.0234375 0  0.1484375 0.0234375 0  0.15625 0.0234375 0  0.1640625 0.0234375 0  0.171875 0.0234375 0  0.1796875 0.0234375 0  0.1875 0.0234375 0  0.1953125 0.0234375 0  0.203125 0.0234375 0  0.2109375 0.0234375 0  0.21875 0.0234375 0  0.2265625 0.0234375 0  0.234375 0.0234375 0  0.2421875 0.0234375 0  0.25 0.0234375 0  0.2578125 0.0234375 0  0.265625 0.0234375 0  0.2734375 0.0234375 0  0.28125 0.0234375 0  0.2890625 0.0234375 0  0.296875 0.0234375 0  0.3046875 0.0234375 0  0.3125 0.0234375 0  0.3203125 0.0234375 0  0.328125 0.0234375 0  0.3359375 0.0234375 0  0.34375 0.0234375 0  0.3515625 0.0234375 0  0.359375 0.0234375 0  0.3671875 0.0234375 0  0.375 0.0234375 0  0.3828125 0.0234375 0  0.390625 0.0234375 0  0.3984375 0.0234375 0  0.40625 0.0234375 0  0.4140625 0.0234375 0  0.421875 0.0234375 0  0.4296875 0.0234375 0  0.4375 0.0234375 0  0.4453125 0.0234375 0  0.453125 0.0234375 0  0.4609375 0.0234375 0  0.46875 0.0234375 0  0.4765625 0.0234375 0  0.484375 0.0234375 0  0.4921875 0.0234375 0  0.5 0.0234375 0  0.5078125 0.0234375 0  0.515625 0.0234375 0  0.5234375 0.0234375 0  0.53125 0.0234375 0  0.5390625 0.0234375 0  0.546875 0.0234375 0  0.5546875 0.0234375 0  0.5625 0.0234375 0  0.5703125 0.0234375 0  0.578125 0.0234375 0  0.5859375 0.0234375 0  0.59375 0.0234375 0  0.6015625 0.0234375 0  0.609375 0.0234375 0  0.6171875 0.0234375 0  0.625 0.0234375 0  0.6328125 0.0234375 0  0.640625 0.0234375 0  0.6484375 0.0234375 0  0.65625 0.0234375 0  0.6640625 0.0234375 0  0.671875 0.0234375 0  0.6796875 0.0234375 0  0.6875 0.0234375 0  0.6953125 0.0234375 0  0.703125 0.0234375 0  0.7109375 0.0234375 0  0.71875 0.0234375 0  0.7265625 0.0234375 0  0.734375 0.0234375 0  0.7421875 0.0234375 0  0.75 0.0234375 0  0.7578125 0.0234375 0  0.765625 0.0234375 0  0.7734375 0.0234375 0  0.78125 0.0234375 0  0.7890625 0.0234375 0  0.796875 0.0234375 0  0.8046875 0.0234375 0  0.8125 0.0234375 0  0.8203125 0.0234375 0  0.828125 0.0234375 0  0.8359375 0.0234375 0  0.84375 0.0234375 0  0.8515625 0.0234375 0  0.859375 0.0234375 0  0.8671
[...]
<CellData  Scalars="f_2088"> 
<DataArray  type="Float64"  Name="f_2088"  format="ascii">9.1539444871562486e-06   9.1539444871562317e-06   9.1324564277053436e-06   9.1377395152195493e-06   9.1002593192333341e-06   9.1108103375793009e-06   9.0574172417644253e-06   9.0732085050750857e-06   9.0040217907112817e-06   9.0250131427771964e-06   8.9401909484694377e-06   8.9663298438285049e-06   8.8660683861728837e-06   8.8972899990902829e-06   8.7818229096419785e-06   8.8180502723916802e-06   8.6876479415860102e-06   8.7287921123003549e-06   8.5837609939487296e-06   8.6297212538644518e-06   8.4704031092604173e-06   8.5210671889786225e-06   8.3478382609270261e-06   8.4030825951744174e-06   8.2163527076999206e-06   8.2760427179879944e-06   8.0762543003205527e-06   8.1402447048146796e-06   7.9278717398704314e-06   7.9960068897113722e-06   7.7715537882730181e-06   7.8436680295286019e-06   7.6076684319856960e-06   7.6835864923413773e-06   7.4366020003224279e-06   7.5161393995640420e-06   7.2587582401430317e-06   7.3417217234253677e-06   7.0745573488690607e-06   7.1607453417051532e-06   6.8844349679699061e-06   6.9736380518317140e-06   6.6888411392117113e-06   6.7808425465743768e-06   6.4882392260919477e-06   6.5828153537102744e-06   6.2831048029905842e-06   6.3800257421583904e-06   6.0739245146723487e-06   6.1729545971619150e-06   5.8611949088538656e-06   5.9620932672058463e-06   5.6454212446323124e-06   5.7479423854293919e-06   5.4271162796303979e-06   5.5310106683529893e-06   5.2067990387782691e-06   5.3118136948180327e-06   4.9849935676960152e-06   5.0908726680744730e-06   4.7622276736829803e-06   4.8687131640043643e-06   4.5390316573533051e-06   4.6458638685035023e-06   4.3159370379805881e-06   4.4228553070675867e-06   4.0934752756319078e-06   4.2002185696593287e-06   3.8721764931802716e-06   3.9784840339294197e-06   3.6525682012863727e-06   3.7581800898917283e-06   3.4351740294306742e-06   3.5398318691246645e-06   3.2205124660700437e-06   3.3239599815806617e-06   3.0090956109608493e-06   3.1110792630637227e-06   2.8014279426719173e-06   2.9016975363866740e-06   2.5980051042674119e-06   2.6963143892330454e-06   2.3993127100962087e-06   2.4954199716602338e-06   2.2058251765783710e-06   2.2994938161575017e-06   2.0180045798144253e-06   2.1090036831272815e-06   1.8362995427832212e-06   1.9244044345625941e-06   1.6611441548210516e-06   1.7461369386625153e-06   1.4929569259955670e-06   1.5746270080312253e-06   1.3321397789050407e-06   1.4102843740279552e-06   1.1790770803422514e-06   1.2535016997507982e-06   1.0341347151651801e-06   1.1046536340469006e-06   8.9765920461655891e-07   9.6409590882722253e-07   7.6997687122391125e-07   8.3216448188798112e-07   6.5139305230086951e-07   7.0917472729235028e-07   5.4219136395349936e-07   5.9542067528589901e-07   4.4263301737038223e-07   4.9117430357911570e-07   3.5295618905197108e-07   3.9668488171349730e-07   2.7337544650204408e-07   3.1217837009557237e-07   2.0408123077045124e-07   2.3785687515566825e-07   1.4523939709906805e-07   1.7389816194616980e-07   9.6990814782524505e-08   1.2045522536304033e-07   5.9451027210515129e-08   7.7655921024121985e-08   3.2709972915383812e-08   4.5602656698566188e-08   1.6831768298916094e-08   2.4372145035288976e-08   1.1854552563787127e-08   1.4015218187576998e-08   1.7790395225453287e-08   1.4556704782583963e-08   3.4625266427488879e-08   2.5995369534120127e-08   6.2319070132226773e-08   4.8303915644288163e-08   1.0080574010707621e-07   8.1429049989111527e-08   1.4999339847324056e-07   1.2529161093009299e-07   2.0976457643433025e-07   1.7978675844388575e-07   2.7997649664976924e-07   2.4478422610754950e-07   3.6046141657085213e-07   3.2012863433442419e-07   4.5102703190848838e-07   4.0563986409879438e-07   5.5145693925614965e-07   5.0111349024822986e-07   6.6151115674942358e-07   6.0632127335381096e-07   7.8092670150210672e-07   7.2101170890986741e-07   9.0941822242203539e-07   8.4491063255510747e-07   1.0466786868748873e-06   9.7772187984660566e-07   1.1923801195360475e-06   1.1191279989999996e-06   1.3461743916404495e-06   1.2687910148577617e-06   1.5076940587229818e-06   1.4263532422526162e-06   1.6765532448204933e-06   1.5914381467846530e-06   1.8523485709965487e-06   1.7636512509393781e-06   2.0346601259414766e-06   1.9425810833458308e-06   2.2230524762987942e-06   2.1278001688850676e-06   2.4170757142718805e-06   2.3188660572456560e-06   2.6162665399764576e-06   2.5153223874444821e-06   2.8201493759174506e-06   2.7166999857266980e-06   3.0282375108925059e-06   2.9225179941973411e-06   3.2400342705530531e-06   3.1322850274431707e-06   3.4550342117877865e-06   3.3455003543510272e-06   3.6727243380365787e-06   3.5616551022557803e-06   3.8925853325909278e-06   3.7802334805062031e-06   4.1140928068937566e-06   4.0007140204815172e-06   4.3367185608145474e-06   4.2225708290546099e-06   4.5599318518453200e-06   4.4452748524707803e-06   4.7832006701419783e-06   4.6682951475702464e-06   5.0059930163198177e-06   4.8911001572760151e-06   5.2277781789047807e-06   5.1131589872653983e-06   5.4480280083417915e-06   5.3339426807030108e-06   5.6662181844702684e-06   5.5529254879723248e-06   5.8818294743865343e-06   5.7695861283033279e-06   6.0943489776415245e-06   5.9834090402402371e-06   6.3032713557464993e-06   6.1938856179065031e-06   6.5081000429925087e-06   6.4005154300625646e-06   6.7083484356418911e-06   6.6028074189901054e-06   6.9035410565841486e-06   6.8002810762713109e-06   7.0932146926168683e-06   6.9924675926016862e-06   7.2769195015633168e-06   7.1789109788100869e-06   7.4542200865086686e-06   7.3591691553429617e-06   7.6246965344997295e-06   7.5328150075137391e-06   7.7879454171329134e-06   7.6994374039007600e-06   7.9435807505142459e-06   7.8586421753452267e-06   8.0912349121569105e-06   8.0100530520505384e-06   8.2305595124305825e-06   8.1533125563619344e-06   8.3612262182300140e-06   8.2880828488336277e-06   8.4829275265436527e-06   8.4140465252076124e-06   8.5953774855611876e-06   8.5309073618870144e-06   8.6983123608377674e-06   8.6383910073530207e-06   8.7914912437166722e-06   8.7362456166607100e-06   8.8746965985746302e-06   8.8242424255005137e-06   8.9477347441265168e-06   8.9021762589735188e-06   9.0104362612394650e-06   8.9698659674166828e-06   9.0626563134588791e-06   9.0271547753215554e-06   9.1042748512810487e-06   9.0739105140884856e-06   9.1351966296362570e-06   9.1100256674422902e-06   9.1553508337297565e-06   9.1354170229088807e-06   9.1646895464551986e-06   9.1500241568630881e-06   9.1377395152195646e-06   9.1324564277053301e-06   9.1163767712662201e-06   9.1163767712662337e-06   9.0843252246761453e-06   9.0896056850135173e-06   9.0416560877222809e-06   9.0522018586581142e-06   8.9884640105079590e-06   9.0042474353454034e-06   8.9248683600901221e-06   8.9458493222014761e-06   8.8510133625690677e-06   8.8771393628262649e-06   8.7670679089319424e-06   8.7982741734174961e-06   8.6732252077389895e-06   8.7094348255735756e-06   8.5697023454085323e-06   8.6108264364305515e-06   8.4567397766785023e-06   8.5026776886244093e-06   8.3346007544296301e-06   8.3852402891526147e-06   8.2035707032082268e-06   8.2587883714006236e-06   8.0639565390118680e-06   8.1236178428127761e-06   7.9160859373097960e-06   7.9800456801095107e-06   7.7603065511132532e-06   7.8284091737902432e-06   7.5969851809276615e-06   7.6690651236997667e-06   7.4265068985182582e-06   7.5023889875147465e-06   7.2492741265240226e-06   7.3287739841356630e-06   7.0657056760736781e-06   7.1486301540685016e-06   6.8762357446795411e-06   6.9623833790288173e-06   6.6813128767775453e-06   6.7704743630755300e-06   6.4813988893951434e-06   6.5733575777106134e-06   6.2769677655203349e-06   6.3715001734649105e-06   6.0685045178171197e-06   6.1653808605880415e-06   5.8565040254273919e-06   5.9554887615102063e-06   5.6414698466604674e-06   5.7423222378835089e-06   5.4239130104258486e-06   5.5263876949770751e-06   5.2043507893350792e-06   5.3081983663561778e-06   4.9833054574294830e-06   5.0882730817578532e-06   4.7613030355388762e-06   4.8671350211456933e-06   4.5388720273051209e-06   4.6453104579599225e-06   4.3165421489235599e-06   4.4233274946002944e-06   4.0948430556816161e-06   4.2017147931964622e-06   3.8743030683653287e-06   3.9810003047424201e-06   3.6554479026283668e-06   3.7617099996742766e-06   3.4387994043855626e-06   3.5443666029462282e-06   3.2248742942984380e-06   3.3294883366883787e-06   3.0141829243959923e-06   3.1175876734726140e-06   2.8072280498194222e-06   2.9091701032142499e-06   2.6045036186915664e-06   2.7047329166835438e-06   2.4064935830186693e-06   2.5047640085889895e-06   2.2136707335058486e-06   2.3097407031006648e-06   2.0264955611182613e-06   2.1201286046953372e-06   1.8454151481238140e-06   1.9363804770635957e-06   1.6708620913152820e-06   1.7589351528215024e-06   1.5032534600136472e-06   1.5882164766510301e-06   1.3429897913707811e-06   1.4246322844365219e-06   1.1904541254050224e-06   1.2685734208520213e-06   1.0460110821070785e-06   1.1204127977992807e-06   9.1000598283963397e-07   9.8050449594920786e-07   7.8276401817309570e-07   8.4918291158630330e-07   6.6458946415150292e-07   7.2676195080003978e-07   5.5576494889839136e-07   6.1353427298310620e-07   4.5655077133091315e-07   5.0977058546656575e-07   3.6718427363289007e-07   4.1571899099417947e-07   2.8787926900222399e-07   3.3160438961903552e-07   2.1882552605993537e-07   2.5762793646776589e-07   1.6018831116396188e-07   1.9396655668473697e-07   1.1210798974048688e-07   1.4077251872723193e-07   7.4699687591700374e-08   9.8173067049918954e-08   4.8053013001835965e-08   6.6270115059834094e-08   3.2231840313290424e-08   4.5139999091814522e-08   2.7274155496385973e-08   3.4833293994131504e-08   3.3191964085188293e-08   3.5374690774306485e-08   4.9971261703873267e-08   4.6762936598868837e-08   7.7572067251854678e-08   6.8970837293758709e-08   1.1592851867112904e-07   1.0194532233878673e-07   1.6494903106008840e-07   1.4560757219892436e-07   2.2451651675493740e-07   1.9985320768587616e-07   2.9448866684201758e-07   2.6455254088933157e-07   3.7469829342442263e-07   3.3955088707343017e-07   4.6495373181073544e-07   4.2466893678280028e-07   5.6503930165625618e-07   5.1970318726037993e-07   6.7471582593688535e-07   6.2442643212582131e-07   7.9372120650450910e-07   7.3858830814299499e-07   9.2177105482895688e-07   8.6191589774097248e-07   1.0585593763977444e-06   9.9411438583907541e-07   1.2037593071250372e-06   1.1348677693805207e-06   1.3570238999764783e-06   1.2838396178658918e-06   1.5179869599199366e-06   1.4406738830389828e-06   1.6862639251686315e-06   1.6049957557686064e-06   1.8614527925941887e-06   1.7764125680537668e-06   2.0431350850616785e-06   1.9545147379693192e-06   2.2308768583524312e-06   2.1388767552596495e-06   2.4242297452310374e-06   2.3290582052070701e-06   2.6227320341357072e-06   2.5246048282810507e-06   2.8259097798726916e-06   2.7250496130202111e-06   3.0332779436345674e-06   2.9299139194810833e-06   3.2443415595739056e-06   3.1387086305606044e-06   3.4585969251141309e-06   3.3509353283712950e-06   3.6755328121093187e-06   3.5660874928552038e-06   3.8946316959244817e-06   3.7836517197045601e-06   4.1153709994552768e-06   4.0031089546582640e-06   4.3372243490727956e-06   4.2239357411735607e-06   4.5596628394569227e-06   4.4456054784550905e-06   4.7821563042431235e-06   4.6675896867941163e-06   5.0041745894055521e-06   4.8893592771348092e-06   5.2251888263003887e-06   5.1103858218231953e-06   5.4446727012551574e-06   5.3301428234138163e-06   5.6621037186536093e-06   5.5481069784904024e-06   5.8769644544302383e-06   5.7637594334191054e-06   6.0887437969379085e-06   5.9765870289773596e-06   6.2969381721687211e-06   6.1860835308535950e-06   6.5010527503518713e-06   6.3917508430018889e-06   6.7006026309911279e-06   6.5931002009172337e-06   6.8951140034467526e-06   6.7896533419101670e-06   7.0841252802359841e-06   6.9809436495257675e-06   7.2671882002686984e-06   7.1665172693117892e-06   7.4438688993191535e-06   7.3459341931892298e-06   7.6137489450840126e-06   7.5187693097467767e-06   7.7764263342619727e-06   7.6846134178725099e-06   7.9315164491639238e-06   7.8430742011644686e-06   8.0786529714166420e-06   7.9937771606630021e-06   8.2174887504084780e-06   8.1363665034944791e-06   8.3476966241613981e-06   8.2705059850634596e-06   8.4689701903464020e-06   8.3958797024567267e-06   8.5810245251420199e-06   8.5121928367068984e-06   8.6835968475462730e-06   8.6191723414588428e-06   8.7764471265251973e-06   8.7165675753676685e-06   8.8593586279142876e-06   8.8041508750692849e-06   8.9321383970542320e-06   8.8817180646408883e-06   8.9946176712893791e-06   8.9490888956003486e-06   9.0466522126352595e-06   9.0061074076827589e-06   9.0881225426185103e-06   9.0526421923659226e-06   9.1189340419020200e-06   9.0885865219297875e-06   9.1390168303301187e-06   9.1138582608055401e-06   9.1483252623250604e-06   9.1283993997214779e-06   9.1108103375792873e-06   9.1002593192333206e-06   9.0896056850135309e-06   9.0843252246761115e-06   9.0577668775328353e-06   9.0577668775328489e-06   9.0153661984691763e-06   9.0206440698044257e-06   8.9624990619195263e-06   8.9730397024456026e-06   8.8992851014973190e-06   8.9150609095875511e-06   8.8258684009920672e-06   8.8468393210248481e-06   8.7424173796137202e-06   8.7685309784903748e-06   8.6491245046227148e-06   8.6803160789506732e-06   8.5462058943374808e-06   8.5823986079582627e-06   8.4339008385091741e-06   8.4750058900054237e-06   8.3124712494206601e-06   8.3583880691750988e-06   8.1822010511307021e-06   8.2328175274577569e-06   8.0433955114594962e-06   8.0985882452462277e-06   7.8963805199913950e-06   7.9560151072198571e-06   7.7415018147283928e-06   7.8054331561881610e-06   7.5791241597665318e-06   7.6471967971893199e-06   7.4096304762542846e-06   7.4816789540522479e-06   7.2334209289021296e-06   7.3092701806137053e-06   7.0509119703302646e-06   7.1303777288312113e-06   6.8625353456382992e-06   6.9454245761079533e-06   6.6687370596207033e-06   6.7548484142050724e-06   6.4699763091531311e-06   6.5591006022118360e-06   6.2667243833420324e-06   6.3586450861139215e-06   6.0594635341129741e-06   6.1539572875877651e-06   5.8486858199516364e-06   5.9455229647100245e-06   5.6348919256436632e-06   5.7338370473420297e-06   5.4185899608172505e-06   5.5194024500184342e-06   5.2002942402429098e-06   5.3027288651985700e-06   4.9805240488201413e-06   5.0843315398250473e-06   4.7598023942476417e-06   4.8647300381325743e-06   4.5386547503998604e-06   4.6444469937144067e-06   4.3176077944509511e-06   4.4240068538683186e-06   4.0971881408000820e-06   4.2039346192527013e-06   3.8779210748680611e-06   3.9847545819180540e-06   3.6603292898362851e-06   3.7669890647618018e-06   3.4449316293676603e-06   3.5511571654615321e-06   3.2322418393775802e-06   3.3377735079187717e-06   3.0227673318577075e-06   3.1273470042597481e-06   2.8170079637571023e-06   2.9203796303573709e-06   2.6154548338654561e-06   2.7173652178685950e-06   2.4185891006283535e-06   2.5187882656940546e-06   2.2268808237261785e-06   2.3251227737439256e-06   2.0407878322626542e-06   2.1368311018286410e-06   1.8607546222583412e-06   1.9543628564405192e-06   1.6872112861473556e-06   1.7781538081232015e-06   1.5205724768546893e-06   1.6086248420361135e-06   1.3612364089693324e-06   1.4461809442736638e-06   1.2095838994151579e-06   1.2912102263736254e-06   1.0659774499634967e-06   1.1440829903865042e-06   9.3076037378079305e-07   1.0051508367646205e-06   8.0425596815102472e-07   8.7474581723331664e-07   6.8676673535428473e-07   7.5317963468394191e-07   5.7857365359476789e-07   6.4074289204091975e-07   4.7993549974442758e-07   5.3770439190165101e-07   3.9108822553334532e-07   4.4431048866255463e-07   3.1224438870205180e-07   3.6078449468179501e-07   2.4359264048928733e-07   2.8732614192792517e-07   1.8529727069564656e-07   2.2411110041028749e-07   1.3749781142086352e-07   1.7129055455844045e-07   1.0030870043884249e-07   1.2899083857543248e-07   7.3819005016836883e-08   9.7313131646982828e-08   5.8092206855050459e-08   7.6333213742467449e-08   5.3166048659174364e-08   6.6101282602538218e-08   5.9052442722593908e-08   6.6641832350644226e-08   7.5737441734488510e-08   7.7953594027305901e-08   1.0318127188883297e-07   1.0000953818637272e-07   1.4131842820959882e-07   1.3275693955226852e-07   1.9005783186439555e-07   1.7611750357595764e-07   2.4928304908478865e-07   2.2998755458879598e-07   3.1885257116251188e-07   2.9423828509491993e-07   3.9860015484540057e-07   3.6871606560223990e-07   4.8833522230915371e-07   4.5324281424114487e-07   5.8784331973706057e-07   5.4761642527623886e-07   6.9688663339381352e-07   6.5161125547489844e-07   8.1520456195498981e-07   7.6497866715699173e-07   9.4251434369505503e-07   8.8744762661002396e-07   1.0785117370251639e-06   1.0187253564237549e-06   1.2228717527267812e-06   1.1584980401632377e-06   1.3752494361178855e-06   1.3064315776785354e-06   1.5352806972499871e-06   1.4621723892214265e-06   1.7025831871317358e-06   1.6253482664232449e-06   1.8767572178575454e-06   1.7955692680746258e-06   2.0573867244151932e-06   1.9724286585409995e-06   2.2440402658383084e-06   2.1555038865383299e-06   2.4362720632928496e-06   2.3443576019074880e-06   2.6336230725681714e-06   2.5385387079142021e-06   2.8356220883944214e-06   2.7375834465445242e-06   3.0417868778908906e-06   2.9410165141472642e-06   3.2516253404292936e-06   3.1483522047448088e-06   3.4646366910681582e-06   3.3590955782202917e-06   3.6803126647288701e-06   3.5727436505773036e-06   3.8981387381663739e-06   3.7887866033656432e-06   4.1175953667938847e-06   4.0067090093611385e-06   4.3381592333553871e-06   4.2259910715230693e-06   4.5593045054242393e-06   4.4461098722229932e-06   4.7805040986827217e-06   4.6665406297311589e-06   5.0012309429045281e-06   4.8867579588966900e-06   5.2209592476033650e-06   5.1062371329821702e-06   5.4391657642365452e-06   5.3244553435820716e-06   5.6553310419352067e-06   5.5408929555709042e-06   5.8689406736994708e-06   5.7550347540362001e-06   6.0794865300257930e-06   5.9663711801689274e-06   6.2864679769887464e-06   6.1743995531095265e-06   6.4893930757920271e-06   6.3786252747730948e-06   6.6877797608901757e-06   6.5785630147321065e-06   6.8811569937968052e-06   6.7737378722611405e-06   7.0690658897671917e-06   6.9636865127074869e-06   7.2510608146070502e-06   7.1479582754221582e-06   7.4267104489095831e-06   7.3261162505167717e-06   7.5955988170990114e-06   7.4977383218109678e-06   7.7573262787525668e-06   7.6624181733850581e-06   7.9115104797105209e-06   7.8197662572336142e-06   8.0577872605914824e-06   7.9694107195803835e-06   8.1958115203882543e-06   8.1109982834987310e-06   8.3252580328841550e-06   8.2441950855179332e-06   8.4458222136806322e-06   8.3686874639729469e-06   8.5572208356532863e-06   8.4841826968461282e-06   8.6591926906175001e-06   8.5904096868424587e-06   8.7514991948947271e-06   8.6871195913220646e-06   8.8339249362097424e-06   8.7740863944714085e-06   8.9062781588550589e-06   8.8511074185915122e-06   8.9683911830547982e-06   8.9180037703924574e-06   9.0201207525059321e-06   8.9746207162605928e-06   9.0613483003083236e-06   9.0208279767750969e-06   9.0919801173715842e-06   9.0565199248429192e-06   9.1119474066148309e-06   9.0816156715646942e-06   9.1212062778916316e-06   9.0960590966598021e-06   9.0732085050751298e-06   9.0574172417643711e-06   9.0522018586580566e-06   9.0416560877222978e-06   9.0206440698044494e-06   9.0153661984691187e-06   8.9786067665826359e-06   8.9786067665826478e-06   8.9261850524091387e-06   8.9314604049617660e-06   8.8634980751472912e-06   8.8740337520842879e-06   8.7906891667998645e-06   8.8064576443455000e-06   8.7079257241028559e-06   8.7288870281449650e-06   8.6153989335110573e-06   8.6415007158988353e-06   8.5133233894161298e-06   8.5445010349651358e-06   8.4019366292123501e-06   8.4381133930852856e-06   8.2814985976497981e-06   8.3225857727497938e-06   8.1522910478770959e-06   8.1981881618094283e-06   8.0146168840453325e-06   8.0652119251563735e-06   7.8687994490