<?xml version="1.0"?>
<VTKFile type="UnstructuredGrid"  version="0.1"  >
<UnstructuredGrid>
<Piece  NumberOfPoints="16641" NumberOfCells="32768">
<Points>
<DataArray  type="Float64"  NumberOfComponents="3"  format="ascii">0 0 0  0.0078125 0 0  0.015625 0 0  0.0234375 0 0  0.03125 0 0  0.0390625 0 0  0.046875 0 0  0.0546875 0 0  0.0625 0 0  0.0703125 0 0  0.078125 0 0  0.0859375 0 0  0.09375 0 0  0.1015625 0 0  0.109375 0 0  0.1171875 0 0  0.125 0 0  0.1328125 0 0  0.140625 0 0  0.1484375 0 0  0.15625 0 0  0.1640625 0 0  0.171875 0 0  0.1796875 0 0  0.1875 0 0  0.1953125 0 0  0.203125 0 0  0.2109375 0 0  0.21875 0 0  0.2265625 0 0  0.234375 0 0  0.2421875 0 0  0.25 0 0  0.2578125 0 0  0.265625 0 0  0.2734375 0 0  0.28125 0 0  0.2890625 0 0  0.296875 0 0  0.3046875 0 0  0.3125 0 0  0.3203125 0 0  0.328125 0 0  0.3359375 0 0  0.34375 0 0  0.3515625 0 0  0.359375 0 0  0.3671875 0 0  0.375 0 0  0.3828125 0 0  0.390625 0 0  0.3984375 0 0  0.40625 0 0  0.4140625 0 0  0.421875 0 0  0.4296875 0 0  0.4375 0 0  0.4453125 0 0  0.453125 0 0  0.4609375 0 0  0.46875 0 0  0.4765625 0 0  0.484375 0 0  0.4921875 0 0  0.5 0 0  0.5078125 0 0  0.515625 0 0  0.5234375 0 0  0.53125 0 0  0.5390625 0 0  0.546875 0 0  0.5546875 0 0  0.5625 0 0  0.5703125 0 0  0.578125 0 0  0.5859375 0 0  0.59375 0 0  0.6015625 0 0  0.609375 0 0  0.6171875 0 0  0.625 0 0  0.6328125 0 0  0.640625 0 0  0.6484375 0 0  0.65625 0 0  0.6640625 0 0  0.671875 0 0  0.6796875 0 0  0.6875 0 0  0.6953125 0 0  0.703125 0 0  0.7109375 0 0  0.71875 0 0  0.7265625 0 0  0.734375 0 0  0.7421875 0 0  0.75 0 0  0.7578125 0 0  0.765625 0 0  0.7734375 0 0  0.78125 0 0  0.7890625 0 0  0.796875 0 0  0.8046875 0 0  0.8125 0 0  0.8203125 0 0  0.828125 0 0  0.8359375 0 0  0.84375 0 0  0.8515625 0 0  0.859375 0 0  0.8671875 0 0  0.875 0 0  0.8828125 0 0  0.890625 0 0  0.8984375 0 0  0.90625 0 0  0.9140625 0 0  0.921875 0 0  0.9296875 0 0  0.9375 0 0  0.9453125 0 0  0.953125 0 0  0.9609375 0 0  0.96875 0 0  0.9765625 0 0  0.984375 0 0  0.9921875 0 0  1 0 0  0 0.0078125 0  0.0078125 0.0078125 0  0.015625 0.0078125 0  0.0234375 0.0078125 0  0.03125 0.0078125 0  0.0390625 0.0078125 0  0.046875 0.0078125 0  0.0546875 0.0078125 0  0.0625 0.0078125 0  0.0703125 0.0078125 0  0.078125 0.0078125 0  0.0859375 0.0078125 0  0.09375 0.0078125 0  0.1015625 0.0078125 0  0.109375 0.0078125 0  0.1171875 0.0078125 0  0.125 0.0078125 0  0.1328125 0.0078125 0  0.140625 0.0078125 0  0.1484375 0.0078125 0  0.15625 0.0078125 0  0.1640625 0.0078125 0  0.171875 0.0078125 0  0.1796875 0.0078125 0  0.1875 0.0078125 0  0.1953125 0.0078125 0  0.203125 0.0078125 0  0.2109375 0.0078125 0  0.21875 0.0078125 0  0.2265625 0.0078125 0  0.234375 0.0078125 0  0.2421875 0.0078125 0  0.25 0.0078125 0  0.2578125 0.0078125 0  0.265625 0.0078125 0  0.2734375 0.0078125 0  0.28125 0.0078125 0  0.2890625 0.0078125 0  0.296875 0.0078125 0  0.3046875 0.0078125 0  0.3125 0.0078125 0  0.3203125 0.0078125 0  0.328125 0.0078125 0  0.3359375 0.0078125 0  0.34375 0.0078125 0  0.3515625 0.0078125 0  0.359375 0.0078125 0  0.3671875 0.0078125 0  0.375 0.0078125 0  0.3828125 0.0078125 0  0.390625 0.0078125 0  0.3984375 0.0078125 0  0.40625 0.0078125 0  0.4140625 0.0078125 0  0.421875 0.0078125 0  0.4296875 0.0078125 0  0.4375 0.0078125 0  0.4453125 0.0078125 0  0.453125 0.0078125 0  0.4609375 0.0078125 0  0.46875 0.0078125 0  0.4765625 0.0078125 0  0.484375 0.0078125 0  0.4921875 0.0078125 0  0.5 0.0078125 0  0.5078125 0.0078125 0  0.515625 0.0078125 0  0.5234375 0.0078125 0  0.53125 0.0078125 0  0.5390625 0.0078125 0  0.546875 0.0078125 0  0.5546875 0.0078125 0  0.5625 0.0078125 0  0.5703125 0.0078125 0  0.578125 0.0078125 0  0.5859375 0.0078125 0  0.59375 0.0078125 0  0.6015625 0.0078125 0  0.609375 0.0078125 0  0.6171875 0.0078125 0  0.625 0.0078125 0  0.6328125 0.0078125 0  0.640625 0.0078125 0  0.6484375 0.0078125 0  0.65625 0.0078125 0  0.6640625 0.0078125 0  0.671875 0.0078125 0  0.6796875 0.0078125 0  0.6875 0.0078125 0  0.6953125 0.0078125 0  0.703125 0.0078125 0  0.7109375 0.0078125 0  0.71875 0.0078125 0  0.7265625 0.0078125 0  0.734375 0.0078125 0  0.7421875 0.0078125 0  0.75 0.0078125 0  0.7578125 0.0078125 0  0.765625 0.0078125 0  0.7734375 0.0078125 0  0.78125 0.0078125 0  0.7890625 0.0078125 0  0.796875 0.0078125 0  0.8046875 0.0078125 0  0.8125 0.0078125 0  0.8203125 0.0078125 0  0.828125 0.0078125 0  0.8359375 0.0078125 0  0.84375 0.0078125 0  0.8515625 0.0078125 0  0.859375 0.0078125 0  0.8671875 0.0078125 0  0.875 0.0078125 0  0.8828125 0.0078125 0  0.890625 0.0078125 0  0.8984375 0.0078125 0  0.90625 0.0078125 0  0.9140625 0.0078125 0  0.921875 0.0078125 0  0.9296875 0.0078125 0  0.9375 0.0078125 0  0.9453125 0.0078125 0  0.953125 0.0078125 0  0.9609375 0.0078125 0  0.96875 0.0078125 0  0.9765625 0.0078125 0  0.984375 0.0078125 0  0.9921875 0.0078125 0  1 0.0078125 0  0 0.015625 0  0.0078125 0.015625 0  0.015625 0.015625 0  0.0234375 0.015625 0  0.03125 0.015625 0  0.0390625 0.015625 0  0.046875 0.015625 0  0.0546875 0.015625 0  0.0625 0.015625 0  0.0703125 0.015625 0  0.078125 0.015625 0  0.0859375 0.015625 0  0.09375 0.015625 0  0.1015625 0.015625 0  0.109375 0.015625 0  0.1171875 0.015625 0  0.125 0.015625 0  0.1328125 0.015625 0  0.140625 0.015625 0  0.1484375 0.015625 0  0.15625 0.015625 0  0.1640625 0.015625 0  0.171875 0.015625 0  0.1796875 0.015625 0  0.1875 0.015625 0  0.1953125 0.015625 0  0.203125 0.015625 0  0.2109375 0.015625 0  0.21875 0.015625 0  0.2265625 0.015625 0  0.234375 0.015625 0  0.2421875 0.015625 0  0.25 0.015625 0  0.2578125 0.015625 0  0.265625 0.015625 0  0.2734375 0.015625 0  0.28125 0.015625 0  0.2890625 0.015625 0  0.296875 0.015625 0  0.3046875 0.015625 0  0.3125 0.015625 0  0.3203125 0.015625 0  0.328125 0.015625 0  0.3359375 0.015625 0  0.34375 0.015625 0  0.3515625 0.015625 0  0.359375 0.015625 0  0.3671875 0.015625 0  0.375 0.015625 0  0.3828125 0.015625 0  0.390625 0.015625 0  0.3984375 0.015625 0  0.40625 0.015625 0  0.4140625 0.015625 0  0.421875 0.015625 0  0.4296875 0.015625 0  0.4375 0.015625 0  0.4453125 0.015625 0  0.453125 0.015625 0  0.4609375 0.015625 0  0.46875 0.015625 0  0.4765625 0.015625 0  0.484375 0.015625 0  0.4921875 0.015625 0  0.5 0.015625 0  0.5078125 0.015625 0  0.515625 0.015625 0  0.5234375 0.015625 0  0.53125 0.015625 0  0.5390625 0.015625 0  0.546875 0.015625 0  0.5546875 0.015625 0  0.5625 0.015625 0  0.5703125 0.015625 0  0.578125 0.015625 0  0.5859375 0.015625 0  0.59375 0.015625 0  0.6015625 0.015625 0  0.609375 0.015625 0  0.6171875 0.015625 0  0.625 0.015625 0  0.6328125 0.015625 0  0.640625 0.015625 0  0.6484375 0.015625 0  0.65625 0.015625 0  0.6640625 0.015625 0  0.671875 0.015625 0  0.6796875 0.015625 0  0.6875 0.015625 0  0.6953125 0.015625 0  0.703125 0.015625 0  0.7109375 0.015625 0  0.71875 0.015625 0  0.7265625 0.015625 0  0.734375 0.015625 0  0.7421875 0.015625 0  0.75 0.015625 0  0.7578125 0.015625 0  0.765625 0.015625 0  0.7734375 0.015625 0  0.78125 0.015625 0  0.7890625 0.015625 0  0.796875 0.015625 0  0.8046875 0.015625 0  0.8125 0.015625 0  0.8203125 0.015625 0  0.828125 0.015625 0  0.8359375 0.015625 0  0.84375 0.015625 0  0.8515625 0.015625 0  0.859375 0.015625 0  0.8671875 0.015625 0  0.875 0.015625 0  0.8828125 0.015625 0  0.890625 0.015625 0  0.8984375 0.015625 0  0.90625 0.015625 0  0.9140625 0.015625 0  0.921875 0.015625 0  0.9296875 0.015625 0  0.9375 0.015625 0  0.9453125 0.015625 0  0.953125 0.015625 0  0.9609375 0.015625 0  0.96875 0.015625 0  0.9765625 0.015625 0  0.984375 0.015625 0  0.9921875 0.015625 0  1 0.015625 0  0 0.0234375 0  0.0078125 0.0234375 0  0.015625 0.0234375 0  0.0234375 0.0234375 0  0.03125 0.0234375 0  0.0390625 0.0234375 0  0.046875 0.0234375 0  0.0546875 0.0234375 0  0.0625 0.0234375 0  0.0703125 0.0234375 0  0.078125 0.0234375 0  0.0859375 0.0234375 0  0.09375 0.0234375 0  0.1015625 0.0234375 0  0.109375 0.0234375 0  0.1171875 0.0234375 0  0.125 0.0234375 0  0.1328125 0.0234375 0  0.140625 0.0234375 0  0.1484375 0.0234375 0  0.15625 0.0234375 0  0.1640625 0.0234375 0  0.171875 0.0234375 0  0.1796875 0.0234375 0  0.1875 0.0234375 0  0.1953125 0.0234375 0  0.203125 0.0234375 0  0.2109375 0.0234375 0  0.21875 0.0234375 0  0.2265625 0.0234375 0  0.234375 0.0234375 0  0.2421875 0.0234375 0  0.25 0.0234375 0  0.2578125 0.0234375 0  0.265625 0.0234375 0  0.2734375 0.0234375 0  0.28125 0.0234375 0  0.2890625 0.0234375 0  0.296875 0.0234375 0  0.3046875 0.0234375 0  0.3125 0.0234375 0  0.3203125 0.0234375 0  0.328125 0.0234375 0  0.3359375 0.0234375 0  0.34375 0.0234375 0  0.3515625 0.0234375 0  0.359375 0.0234375 0  0.3671875 0.0234375 0  0.375 0.0234375 0  0.3828125 0.0234375 0  0.390625 0.0234375 0  0.3984375 0.0234375 0  0.40625 0.0234375 0  0.4140625 0.0234375 0  0.421875 0.0234375 0  0.4296875 0.0234375 0  0.4375 0.0234375 0  0.4453125 0.0234375 0  0.453125 0.0234375 0  0.4609375 0.0234375 0  0.46875 0.0234375 0  0.4765625 0.0234375 0  0.484375 0.0234375 0  0.4921875 0.0234375 0  0.5 0.0234375 0  0.5078125 0.0234375 0  0.515625 0.0234375 0  0.5234375 0.0234375 0  0.53125 0.0234375 0  0.5390625 0.0234375 0  0.546875 0.0234375 0  0.5546875 0.0234375 0  0.5625 0.0234375 0  0.5703125 0.0234375 0  0.578125 0.0234375 0  0.5859375 0.0234375 0  0.59375 0.0234375 0  0.6015625 0.0234375 0  0.609375 0.0234375 0  0.6171875 0.0234375 0  0.625 0.0234375 0  0.6328125 0.0234375 0  0.640625 0.0234375 0  0.6484375 0.0234375 0  0.65625 0.0234375 0  0.6640625 0.0234375 0  0.671875 0.0234375 0  0.6796875 0.0234375 0  0.6875 0.0234375 0  0.6953125 0.0234375 0  0.703125 0.0234375 0  0.7109375 0.0234375 0  0.71875 0.0234375 0  0.7265625 0.0234375 0  0.734375 0.0234375 0  0.7421875 0.0234375 0  0.75 0.0234375 0  0.7578125 0.0234375 0  0.765625 0.0234375 0  0.7734375 0.0234375 0  0.78125 0.0234375 0  0.7890625 0.0234375 0  0.796875 0.0234375 0  0.8046875 0.0234375 0  0.8125 0.0234375 0  0.8203125 0.0234375 0  0.828125 0.0234375 0  0.8359375 0.0234375 0  0.84375 0.0234375 0  0.8515625 0.0234375 0  0.859375 0.0234375 0  0.8671
[...]
<CellData  Scalars="f_2067"> 
<DataArray  type="Float64"  Name="f_2067"  format="ascii">1.9431030721997051e-11   1.9431030722010925e-11   2.7681591533889195e-12   5.2564547258139096e-12   2.2571673236166784e-12   2.5651200456658336e-12   2.3242637166029893e-12   2.3690522773223851e-12   2.4142414544317256e-12   2.4153157651271020e-12   2.4859004907319114e-12   2.4871475234431041e-12   2.5409078195466905e-12   2.5499781838557114e-12   2.5832617921327032e-12   2.6001454788378371e-12   2.6158730264493509e-12   2.6392169754041496e-12   2.6406680158019135e-12   2.6691242056935264e-12   2.6589211614430692e-12   2.6913885280557032e-12   2.6714938421540709e-12   2.7071145966903934e-12   2.6789851627745296e-12   2.7170954157573334e-12   2.6818252833578682e-12   2.7219068382118053e-12   2.6803338121993586e-12   2.7219761563258555e-12   2.6747570543624808e-12   2.7176292569981511e-12   2.6652922909886992e-12   2.7091226580977092e-12   2.6521039405839170e-12   2.6966653465925428e-12   2.6353345282524298e-12   2.6804338051531154e-12   2.6151122559581483e-12   2.6605824796464518e-12   2.5915563179874292e-12   2.6372511411499964e-12   2.5647806622131128e-12   2.6105701245332410e-12   2.5348966930711617e-12   2.5806640941860698e-12   2.5020152012797800e-12   2.5476547583406744e-12   2.4662477746234311e-12   2.5116628399875509e-12   2.4277077855003679e-12   2.4728094949873359e-12   2.3865111045279010e-12   2.4312173433037980e-12   2.3427765808354275e-12   2.3870111874279814e-12   2.2966263557368449e-12   2.3403185097549363e-12   2.2481860475840866e-12   2.2912697965863885e-12   2.1975848312676460e-12   2.2399987216821909e-12   2.1449554335873044e-12   2.1866422306283878e-12   2.0904340707953439e-12   2.1313405366678195e-12   2.0341603158998889e-12   2.0742370454265743e-12   1.9762769464395594e-12   2.0154782305793445e-12   1.9169297337807741e-12   1.9552134603023072e-12   1.8562672092828370e-12   1.8935947875362269e-12   1.7944404095775089e-12   1.8307767096952439e-12   1.7316025962973226e-12   1.7669159023059224e-12   1.6679089575909548e-12   1.7021709302922108e-12   1.6035162940467566e-12   1.6367019416099547e-12   1.5385826968234449e-12   1.5706703484813984e-12   1.4732672096192975e-12   1.5042384921942409e-12   1.4077294834001738e-12   1.4375693019981645e-12   1.3421294298557272e-12   1.3708259446588122e-12   1.2766268636968370e-12   1.3041714658712949e-12   1.2113811445344696e-12   1.2377684309649240e-12   1.1465508119078478e-12   1.1717785605282549e-12   1.0822932325147814e-12   1.1063623666483345e-12   1.0187642312152540e-12   1.0416787880422785e-12   9.5611773485318489e-13   9.7788482314370010e-13   8.9450541893023346e-13   9.1513517594268027e-13   8.3407634876779364e-13   8.5358189330008813e-13   7.7497663772918413e-13   7.9337401518799557e-13   7.1734910480342353e-13   7.3465722679745654e-13   6.6133293807747703e-13   6.7757352082800212e-13   6.0706337131066831e-13   6.2226086659513454e-13   5.5467136550864055e-13   5.6885288412268133e-13   5.0428330099111862e-13   5.1747853345160874e-13   4.5602067927546262e-13   4.6826181190987883e-13   4.0999983924064431e-13   4.2132146394569947e-13   3.6633168177610028e-13   3.7677069930339909e-13   3.2512140798860217e-13   3.3471693074830184e-13   2.8646827434309182e-13   2.9526151853009533e-13   2.5046535695972060e-13   2.5849953383763234e-13   2.1719933246979201e-13   2.2451953659511328e-13   1.8675027686997564e-13   1.9340336300154094e-13   1.5919147557191804e-13   1.6522594007966184e-13   1.3458925373528562e-13   1.4005510744793354e-13   1.1300282036363334e-13   1.1795145647915478e-13   9.4484131883998540e-14   9.8968193556656275e-14   7.9077771743489280e-14   8.3151014129926639e-14   6.6820848723789547e-14   7.0537999375791697e-14   5.7742912737585522e-14   6.1159527447564947e-14   5.1865890085397291e-14   5.5038206866891498e-14   4.9204035693588697e-14   5.2188826357584381e-14   4.9763906158703477e-14   5.2618323904755080e-14   5.3544348987103372e-14   5.6325776006605613e-14   6.0536513733469569e-14   6.3302404788884118e-14   7.0723879994157427e-14   7.3531604174963106e-14   8.4082305392519959e-14   8.6988985899748864e-14   1.0058009203817840e-13   1.0364244397541041e-13   1.2017807243919748e-13   1.2345223758969358e-13   1.4282971387291095e-13   1.4637109326161310e-13   1.6848124097120640e-13   1.7234432510379680e-13   1.9707177844176994e-13   2.0130997315278532e-13   2.2853351065107553e-13   2.3319895940410774e-13   2.6279186011962456e-13   2.6793526141261500e-13   2.9976568422943982e-13   3.0543610336156682e-13   3.3936748989844392e-13   3.4561216305280097e-13   3.8150366670681864e-13   3.8836779451365459e-13   4.2607473762287543e-13   4.3360126849027560e-13   4.7297562700776300e-13   4.8120502433859537e-13   5.2209594876790999e-13   5.3106593949780471e-13   5.7332031170035455e-13   5.8306561037915561e-13   6.2652864675197938e-13   6.3708064662646183e-13   6.8159655129094931e-13   6.9298297725997360e-13   7.3839565821637349e-13   7.5064016816369476e-13   7.9679403031498236e-13   8.0991574849304920e-13   8.5665658115485772e-13   8.7066954365339254e-13   9.1784552973000273e-13   9.3275801898942882e-13   9.8022089541151580e-13   9.9603462409654246e-13   1.0436410428437402e-12   1.0603501401633149e-12   1.1079632914545945e-12   1.1255530280631103e-12   1.1730446112678428e-12   1.1914897646800544e-12   1.2387424300341350e-12   1.2580051764792559e-12   1.3049156070525693e-12   1.3249427454988510e-12   1.3714256330220681e-12   1.3921448899708733e-12   1.4381381597735973e-12   1.4594531997176788e-12   1.5049250317094836e-12   1.5267086098720374e-12   1.5716670665107761e-12   1.5937514855613520e-12   1.6382580230041525e-12   1.6604215977421712e-12   1.7046104646408975e-12   1.7265579586527401e-12   1.7706647776321933e-12   1.7919985325249004e-12   1.8364035842190905e-12   1.8565799157724954e-12   1.9018757784840108e-12   1.9201373902807906e-12   1.9672384150663370e-12   1.9825065523834602e-12   2.0328333830448802e-12   2.0435300363011393e-12   2.0993353411211951e-12   2.1030794831396342e-12   2.1680534840305802e-12   2.1611229414821784e-12   2.2415805714111256e-12   2.2179319836643626e-12   2.3252398020565186e-12   2.2747432684720953e-12   2.4302379180728187e-12   2.3360085214303915e-12   2.5789891844736208e-12   2.4176160482261299e-12   2.8008116729294536e-12   2.5784164073600618e-12   3.0398725262373720e-12   3.0326800372086030e-12   4.3860723034448549e-12   4.2579164910521451e-12   2.8098733256858246e-10   1.0367825918468390e-11   5.2564547257810219e-12   2.7681591533805035e-12   3.1062286028041009e-12   3.1062286028638493e-12   2.6848717271971535e-12   3.1768060488060866e-12   2.6023748998690800e-12   2.8955866598558048e-12   2.5993537653292683e-12   2.7222231923995805e-12   2.6238390593348759e-12   2.6713959748872031e-12   2.6532554905494912e-12   2.6697846154792022e-12   2.6802731286178308e-12   2.6842838428656813e-12   2.7027894340116030e-12   2.7022251908417551e-12   2.7203631998045101e-12   2.7187613024266696e-12   2.7330634333181000e-12   2.7320255265683670e-12   2.7410959372116716e-12   2.7413327301603670e-12   2.7446831435979167e-12   2.7464815289521897e-12   2.7440288893435551e-12   2.7474705944669882e-12   2.7393118524605273e-12   2.7443793995784220e-12   2.7306881254660808e-12   2.7373174280253703e-12   2.7182960923727720e-12   2.7264028873624819e-12   2.7022612663506721e-12   2.7117543795885754e-12   2.6827004123905921e-12   2.6934882757911141e-12   2.6597248475034428e-12   2.6717185157042277e-12   2.6334430056818009e-12   2.6465573675325698e-12   2.6039623897465647e-12   2.6181164576930654e-12   2.5713910532739205e-12   2.5865078070057642e-12   2.5358386851083804e-12   2.5518447161711847e-12   2.4974174297239079e-12   2.5142425211838126e-12   2.4562424520784301e-12   2.4738191545375525e-12   2.4124323281291307e-12   2.4306955803819945e-12   2.3661093063170748e-12   2.3849960932046537e-12   2.3173994444390557e-12   2.3368485101999428e-12   2.2664326577849824e-12   2.2863842626997272e-12   2.2133426883212081e-12   2.2337384207609821e-12   2.1582670260115617e-12   2.1790496472296185e-12   2.1013467684034619e-12   2.1224600933078829e-12   2.0427264457471859e-12   2.0641152539851433e-12   1.9825538063702072e-12   2.0041637847105046e-12   1.9209795731495912e-12   1.9427572747868012e-12   1.8581571836134743e-12   1.8800500079573711e-12   1.7942424935008016e-12   1.8161986823348477e-12   1.7293934790822011e-12   1.7513621275335707e-12   1.6637699107343188e-12   1.6857009882018441e-12   1.5975330205876010e-12   1.6193774055577254e-12   1.5308451715139288e-12   1.5525546794095201e-12   1.4638694776785724e-12   1.4853969163839070e-12   1.3967694707567228e-12   1.4180686917727977e-12   1.3297087294288919e-12   1.3507346759990297e-12   1.2628505032367944e-12   1.2835592711058498e-12   1.1963573527384412e-12   1.2167062510120141e-12   1.1303907728230117e-12   1.1503383827983385e-12   1.0651108230591305e-12   1.0846170623813307e-12   1.0006757611483262e-12   1.0197019463089988e-12   9.3724167357617166e-13   9.5575058010292483e-13   8.7496211140765696e-13   8.9291803745015820e-13   8.1398773874320536e-13   8.3135656584977789e-13   7.5446597660332787e-13   7.7121522078332878e-13   6.9654065646209373e-13   7.1263953221316884e-13   6.4035168472160782e-13   6.5577115640812307e-13   5.8603471657975371e-13   6.0074754803588431e-13   5.3372083561476042e-13   5.4770163393098770e-13   4.8353624186397381e-13   4.9676150788774658e-13   4.3560195997428231e-13   4.4805012600905055e-13   3.9003355220258713e-13   4.0168501713456002e-13   3.4694084693303741e-13   3.5777800881959146e-13   3.0642767685104609e-13   3.1643496277578581e-13   2.6859163943669417e-13   2.7775552547684419e-13   2.3352386437633124e-13   2.4183289750238009e-13   2.0130880112019520e-13   2.0875360793808899e-13   1.7202401765581348e-13   1.7859731996852874e-13   1.4574002298081492e-13   1.5143663337656219e-13   1.2252010035258849e-13   1.2733692376156381e-13   1.0242016037467983e-13   1.0635618448641353e-13   8.5488610087676104e-14   8.8544892488968437e-14   7.1766244239682652e-14   7.3945893050691423e-14   6.1286150819615142e-14   6.2594297699679401e-14   5.4073637278743356e-14   5.4517405222140673e-14   5.0146174820726128e-14   4.9734640872080730e-14   4.9513362273891505e-14   4.8257511521322435e-14   5.2176909829810523e-14   5.0089583729067044e-14   5.8130640118431384e-14   5.5226476872622382e-14   6.7360510624982688e-14   6.3655878980366938e-14   7.9844654021321874e-14   7.5357578628305498e-14   9.5553438552224791e-14   9.0303517857714422e-14   1.1444954738157272e-13   1.0845786168873758e-13   1.3648807660736355e-13   1.2977708816369144e-13   1.6161665315021246e-13   1.5421009511049449e-13   1.8977556982231402e-13   1.8169832499112938e-13   2.2089794034729180e-13   2.1217590834743584e-13   2.5490987232826221e-13   2.4556982193440795e-13   2.9173065713764289e-13   2.8180006532939906e-13   3.3127297792768235e-13   3.2077985177664243e-13   3.7344313708269638e-13   3.6241581578731717e-13   4.1814129608390728e-13   4.0660823025606581e-13   4.6526173637481745e-13   4.5325124401855034e-13   5.1469313480889217e-13   5.0223312391246920e-13   5.6631885563955454e-13   5.5343651040984285e-13   6.2001725669417605e-13   6.0673868070916741e-13   6.7566201404877102e-13   6.6201182087006276e-13   7.3312245917650848e-13   7.1912329608837512e-13   7.9226393429296679e-13   7.7793592838981865e-13   8.5294815920864619e-13   8.3830826310528234e-13   9.1503361967268106e-13   9.0009483255634822e-13   9.7837596468305122e-13   9.6314639850914743e-13   1.0428284261983686e-12   1.0273101729331439e-12   1.1082422520764239e-12   1.0924299975538202e-12   1.1744671579874104e-12   1.1583464682020142e-12   1.2413517987801909e-12   1.2248969813613566e-12   1.3087442550883195e-12   1.2919156670523626e-12   1.3764925404629787e-12   1.3592331615043180e-12   1.4444451211408842e-12   1.4266761532505041e-12   1.5124514342725425e-12   1.4940666006460305e-12   1.5803623933459987e-12   1.5612204836909346e-12   1.6480308164979170e-12   1.6279458651078078e-12   1.7153116869585441e-12   1.6940399537692798e-12   1.7820620213596980e-12   1.7592846677504563e-12   1.8481398912487484e-12   1.8234399748890255e-12   1.9134015935501194e-12   1.8862338711844125e-12   1.9776947244617709e-12   1.9473473170229002e-12   2.0408418506719941e-12   2.0063916267025469e-12   2.1026016589430588e-12   2.0628749135495235e-12   2.1625730446519178e-12   2.1161536906225431e-12   2.2199456582226139e-12   2.1653676153049872e-12   2.2728122149556282e-12   2.2093641888825146e-12   2.3161787504019759e-12   2.2466378232509304e-12   2.3361728590362864e-12   2.2752547933244065e-12   2.2954445182457645e-12   2.2918656508990794e-12   2.1266251463785187e-12   2.2828114769181822e-12   2.0868481191773628e-12   2.1820700419162250e-12   5.5952657660329036e-12   2.0024506010559604e-12   4.4354271749613711e-12   4.2999899746804939e-12   2.5651200456280014e-12   2.2571673236395434e-12   3.1768060487710114e-12   2.6848717271707265e-12   2.8887679063611013e-12   2.8887679064094413e-12   2.7696889680770782e-12   2.9473729210308327e-12   2.7280495508358789e-12   2.8849085592168883e-12   2.7193236612797267e-12   2.8219609302402711e-12   2.7251917595993860e-12   2.7876964875687266e-12   2.7363229031341650e-12   2.7744508997619399e-12   2.7479913972199456e-12   2.7721150350100406e-12   2.7578879835642118e-12   2.7741751924297879e-12   2.7649090755283580e-12   2.7769651265804001e-12   2.7685432155613426e-12   2.7784872059267469e-12   2.7685712950530897e-12   2.7776613998885828e-12   2.7649205768653365e-12   2.7739094650170475e-12   2.7575929356766757e-12   2.7669311545327107e-12   2.7466291894350815e-12   2.7565833961606698e-12   2.7320912284125229e-12   2.7428141955530279e-12   2.7140530770189531e-12   2.7256259115906894e-12   2.6925964805183299e-12   2.7050545461981263e-12   2.6678088040764574e-12   2.6811578830236461e-12   2.6397821037175834e-12   2.6540086370070831e-12   2.6086127818323072e-12   2.6236904345860507e-12   2.5744015138271318e-12   2.5902954380600624e-12   2.5372532858028530e-12   2.5539229222197395e-12   2.4972774606323035e-12   2.5146783946437768e-12   2.4545878375041871e-12   2.4726730369271140e-12   2.4093026592830318e-12   2.4280233267733160e-12   2.3615446040294414e-12   2.3808507480860369e-12   2.3114407154948806e-12   2.3312815536900893e-12   2.2591223007698675e-12   2.2794465479554066e-12   2.2047247895080256e-12   2.2254808683051277e-12   2.1483875617335708e-12   2.1695237557885812e-12   2.0902537363926084e-12   2.1117183208367633e-12   2.0304699456354323e-12   2.0522112878767038e-12   1.9691860700565531e-12   1.9911527238557628e-12   1.9065549744590479e-12   1.9286957549903273e-12   1.8427321948859872e-12   1.8649962634486826e-12   1.7778756423302596e-12   1.8002125763727037e-12   1.7121452655798237e-12   1.7345051385714326e-12   1.6457027238357705e-12   1.6680361706787201e-12   1.5787110280570142e-12   1.6009693298107308e-12   1.5113341972297661e-12   1.5334693464697543e-12   1.4437368830701256e-12   1.4657016683049660e-12   1.3760840146091775e-12   1.3978320878086708e-12   1.3085404147907897e-12   1.3300263757962838e-12   1.2412704350419983e-12   1.2624499012419766e-12   1.1744375757260540e-12   1.1952672622551526e-12   1.1082041083932112e-12   1.1286419016650669e-12   1.0427307046193592e-12   1.0627357406805122e-12   9.7817606734815598e-13   9.9770879569328425e-13   9.1469654872309098e-13   9.3371881755477320e-13   8.5244580167519954e-13   8.7092091696263790e-13   7.9157440975878186e-13   8.0946720673149665e-13   7.3222954093474121e-13   7.4950644885063201e-13   6.7455459587998716e-13   6.9118370169976498e-13   6.1868887695407023e-13   6.3463998691204735e-13   5.6476726149442793e-13   5.8001195171962073e-13   5.1291987921819019e-13   5.2743155151165025e-13   4.6327180647946996e-13   4.7702573823851537e-13   4.1594277847924528e-13   4.2891616678547155e-13   3.7104689653211318e-13   3.8321889900380093e-13   3.2869236897382161e-13   3.4004413966752163e-13   2.8898124901069720e-13   2.9949597216976199e-13   2.5200919942503929e-13   2.6167211328590331e-13   2.1786526362668149e-13   2.2666368418623068e-13   1.8663165591710997e-13   1.9455499763496547e-13   1.5838357440125588e-13   1.6542335447212634e-13   1.3318901782743045e-13   1.3933886758321153e-13   1.1110862864326039e-13   1.1636429372709994e-13   9.2195553329658573e-14   9.6554886852038055e-14   7.6495317135089924e-14   7.9958270646302118e-14   6.4045719450519545e-14   6.6614325037169981e-14   5.4876747852454467e-14   5.6555095044648695e-14   4.9010509832344812e-14   4.9804715955216306e-14   4.6461184748248736e-14   4.6379359143502655e-14   4.7234993530581283e-14   4.6287194786155476e-14   5.1330188834048996e-14   4.9528374697308417e-14   5.8737063602769176e-14   5.6095034927691747e-14   6.9437979669809321e-14   6.5971315474919135e-14   8.3407414281540929e-14   7.9133400154590288e-14   1.0061202695704261e-13   9.5549574459510059e-14   1.2101074357325687e-13   1.1518030220064560e-13   1.4455486113515321e-13   1.3797832000884918e-13   1.7118816846106368e-13   1.6388874921057047e-13   2.0084708701218667e-13   1.9284922570701969e-13   2.3346082720634108e-13   2.2479004540946297e-13   2.6895156380073846e-13   2.5963432628887962e-13   3.0723462591973547e-13   2.9729818588350785e-13   3.4821870349390237e-13   3.3769093145943046e-13   3.9180606964709643e-13   3.8071526527707327e-13   4.3789281613196405e-13   4.2626749953144452e-13   4.8636910110642037e-13   4.7423778379388698e-13   5.3711941150230568e-13   5.2451033787898508e-13   5.9002283135171955e-13   5.7696369309837334e-13   6.4495332455251972e-13   6.3147093527528247e-13   7.0178001722532657e-13   6.8789994732270009e-13   7.6036748795171562e-13   7.4611364822205820e-13   8.2057605466701760e-13   8.0597021922383199e-13   8.8226205928006103e-13   8.6732331500483959e-13   9.4527813528659324e-13   9.3002224490649966e-13   1.0094734591870046e-12   9.9391211637094350e-13   1.0746939618244328e-12   1.0588339222299590e-12   1.1407824937521248e-12   1.1246245476284180e-12   1.2075789058708915e-12   1.1911166696101400e-12   1.2749200190203847e-12   1.2581385021569751e-12   1.3426394119280305e-12   1.3255133353725383e-12   1.4105669579607884e-12   1.3930587772096727e-12   1.4785279578373673e-12   1.4605855812851322e-12   1.5463416722162226e-12   1.5278958932005889e-12   1.6138189053708967e-12   1.5947806602281105e-12   1.6807580880265509e-12   1.6610158272987179e-12   1.7469389133077217e-12   1.7263567756930813e-12   1.8121119051683179e-12   1.7905301453381883e-12   1.8759810303482995e-12   1.8532217578983271e-12   1.9381740591919298e-12   1.9140586179701697e-12   1.9981906528730091e-12   1.9725818325453787e-12   2.0553085888882313e-12   2.0282053620682413e-12   2.1084086556368602e-12   2.0801522772701732e-12   2.1556371158445128e-12   2.1273542655140166e-12   2.1937400832581810e-12   2.1682880341621706e-12   2.2167567574139416e-12   2.2006936322433008e-12   2.2136564021982939e-12   2.2210446758739174e-12   2.1654514711406752e-12   2.2234687410370591e-12   2.0495600862907585e-12   2.1978395348792426e-12   1.8878621861345413e-12   2.1312068577524259e-12   1.8789661774517127e-12   2.0520326929495439e-12   2.1334905905492801e-12   2.2470924365895420e-12   3.1435411102918801e-12   3.1699673502409868e-12   2.3690522773142510e-12   2.3242637165954372e-12   2.8955866599626835e-12   2.6023748998989732e-12   2.9473729209932048e-12   2.7696889680270774e-12   2.8778626913576864e-12   2.8778626913629431e-12   2.8297376203879736e-12   2.9055322264836200e-12   2.8053163390438138e-12   2.8886148295853425e-12   2.7955191988872794e-12   2.8637051452042461e-12   2.7935423158416747e-12   2.8445648083665010e-12   2.7949099678828130e-12   2.8323832031012014e-12   2.7968305632658168e-12   2.8247899123275677e-12   2.7976211006564839e-12   2.8192555200376196e-12   2.7962872939581343e-12   2.8138751522361206e-12   2.7922509596907792e-12   2.8073612650844222e-12   2.7851836742496266e-12   2.7988824567886819e-12   2.7749080287