<?xml version="1.0"?>
<VTKFile type="UnstructuredGrid"  version="0.1"  >
<UnstructuredGrid>
<Piece  NumberOfPoints="25" NumberOfCells="32">
<Points>
<DataArray  type="Float64"  NumberOfComponents="3"  format="ascii">0 0 0  0.25 0 0  0.5 0 0  0.75 0 0  1 0 0  0 0.25 0  0.25 0.25 0  0.5 0.25 0  0.75 0.25 0  1 0.25 0  0 0.5 0  0.25 0.5 0  0.5 0.5 0  0.75 0.5 0  1 0.5 0  0 0.75 0  0.25 0.75 0  0.5 0.75 0  0.75 0.75 0  1 0.75 0  0 1 0  0.25 1 0  0.5 1 0  0.75 1 0  1 1 0  </DataArray>
</Points>
<Cells>
<DataArray  type="UInt32"  Name="connectivity"  format="ascii">0 1 6  0 5 6  1 2 7  1 6 7  2 3 8  2 7 8  3 4 9  3 8 9  5 6 11  5 10 11  6 7 12  6 11 12  7 8 13  7 12 13  8 9 14  8 13 14  10 11 16  10 15 16  11 12 17  11 16 17  12 13 18  12 17 18  13 14 19  13 18 19  15 16 21  15 20 21  16 17 22  16 21 22  17 18 23  17 22 23  18 19 24  18 23 24  </DataArray>
<DataArray  type="UInt32"  Name="offsets"  format="ascii">3 6 9 12 15 18 21 24 27 30 33 36 39 42 45 48 51 54 57 60 63 66 69 72 75 78 81 84 87 90 93 96 </DataArray>
<DataArray  type="UInt8"  Name="types"  format="ascii">5 5 5 5 5 5 5 5 5 5 5 5 5 5 5 5 5 5 5 5 5 5 5 5 5 5 5 5 5 5 5 5 </DataArray>
</Cells>
<CellData  Scalars="f_44026"> 
<DataArray  type="Float64"  Name="f_44026"  format="ascii">3.6061032031625608e-34   3.6061032031625608e-34   1.3458104212080958e-34   1.3458104212080958e-34   7.8240903990731499e-35   7.8240903990731499e-35   6.6872567513445683e-34   6.6872567513445683e-34   1.2906405530095015e-34   1.2906405530095015e-34   4.7810751120511494e-34   4.7810751120511494e-34   2.6297637174662542e-34   2.6297637174662542e-34   7.8240903990731499e-35   7.8240903990731499e-35   7.4897275615059205e-35   7.4897275615059205e-35   1.5306052950520762e-34   1.5246945393065621e-34   4.7555081099207664e-34   4.7614188656662809e-34   1.0231502829557186e-34   1.0231502829557186e-34   7.8240903990731499e-35   7.8240903990731499e-35   7.5002560951776182e-35   7.4897275615059216e-35   1.0114475836408670e-34   1.0125004370080367e-34   1.8005438802995255e-34   1.8005438802995255e-34   </DataArray> 
</CellData> 
</Piece>
</UnstructuredGrid>
</VTKFile>