<?xml version="1.0"?>
<VTKFile type="UnstructuredGrid"  version="0.1"  >
<UnstructuredGrid>
<Piece  NumberOfPoints="25" NumberOfCells="32">
<Points>
<DataArray  type="Float64"  NumberOfComponents="3"  format="ascii">0 0 0  0.25 0 0  0.5 0 0  0.75 0 0  1 0 0  0 0.25 0  0.25 0.25 0  0.5 0.25 0  0.75 0.25 0  1 0.25 0  0 0.5 0  0.25 0.5 0  0.5 0.5 0  0.75 0.5 0  1 0.5 0  0 0.75 0  0.25 0.75 0  0.5 0.75 0  0.75 0.75 0  1 0.75 0  0 1 0  0.25 1 0  0.5 1 0  0.75 1 0  1 1 0  </DataArray>
</Points>
<Cells>
<DataArray  type="UInt32"  Name="connectivity"  format="ascii">0 1 6  0 5 6  1 2 7  1 6 7  2 3 8  2 7 8  3 4 9  3 8 9  5 6 11  5 10 11  6 7 12  6 11 12  7 8 13  7 12 13  8 9 14  8 13 14  10 11 16  10 15 16  11 12 17  11 16 17  12 13 18  12 17 18  13 14 19  13 18 19  15 16 21  15 20 21  16 17 22  16 21 22  17 18 23  17 22 23  18 19 24  18 23 24  </DataArray>
<DataArray  type="UInt32"  Name="offsets"  format="ascii">3 6 9 12 15 18 21 24 27 30 33 36 39 42 45 48 51 54 57 60 63 66 69 72 75 78 81 84 87 90 93 96 </DataArray>
<DataArray  type="UInt8"  Name="types"  format="ascii">5 5 5 5 5 5 5 5 5 5 5 5 5 5 5 5 5 5 5 5 5 5 5 5 5 5 5 5 5 5 5 5 </DataArray>
</Cells>
<CellData  Scalars="f_48"> 
<DataArray  type="Float64"  Name="f_48"  format="ascii">4.9598271805649831e-08   6.8219269212185889e-08   1.1199175673213342e-07   7.1027248382881449e-08   7.6634747913682443e-08   9.5595747256479856e-08   1.2982813091165171e-08   9.3511526309501165e-08   8.9400946951849473e-08   1.2720410695677466e-07   2.3543339879838891e-08   3.3783807814681141e-08   4.0022622043078103e-08   1.2602247476839665e-08   1.0525575061895645e-07   1.0516192856522707e-07   1.1407963176259427e-07   6.2399712770495491e-08   3.4659572564505250e-08   5.3930285270129622e-08   4.5265348822680664e-08   5.8734611455002046e-08   1.2526662951444825e-07   6.6324776591336214e-08   7.4611589254034192e-08   2.5174111726495827e-09   1.2231547606376996e-07   8.9890227491968762e-08   8.0220733155980176e-08   1.4246172228178528e-07   3.2843373683859496e-08   5.5574339681421989e-08   </DataArray> 
</CellData> 
</Piece>
</UnstructuredGrid>
</VTKFile>