<?xml version="1.0"?>
<VTKFile type="UnstructuredGrid"  version="0.1"  >
<UnstructuredGrid>
<Piece  NumberOfPoints="1089" NumberOfCells="2048">
<Points>
<DataArray  type="Float64"  NumberOfComponents="3"  format="ascii">0 0 0  0.03125 0 0  0.0625 0 0  0.09375 0 0  0.125 0 0  0.15625 0 0  0.1875 0 0  0.21875 0 0  0.25 0 0  0.28125 0 0  0.3125 0 0  0.34375 0 0  0.375 0 0  0.40625 0 0  0.4375 0 0  0.46875 0 0  0.5 0 0  0.53125 0 0  0.5625 0 0  0.59375 0 0  0.625 0 0  0.65625 0 0  0.6875 0 0  0.71875 0 0  0.75 0 0  0.78125 0 0  0.8125 0 0  0.84375 0 0  0.875 0 0  0.90625 0 0  0.9375 0 0  0.96875 0 0  1 0 0  0 0.03125 0  0.03125 0.03125 0  0.0625 0.03125 0  0.09375 0.03125 0  0.125 0.03125 0  0.15625 0.03125 0  0.1875 0.03125 0  0.21875 0.03125 0  0.25 0.03125 0  0.28125 0.03125 0  0.3125 0.03125 0  0.34375 0.03125 0  0.375 0.03125 0  0.40625 0.03125 0  0.4375 0.03125 0  0.46875 0.03125 0  0.5 0.03125 0  0.53125 0.03125 0  0.5625 0.03125 0  0.59375 0.03125 0  0.625 0.03125 0  0.65625 0.03125 0  0.6875 0.03125 0  0.71875 0.03125 0  0.75 0.03125 0  0.78125 0.03125 0  0.8125 0.03125 0  0.84375 0.03125 0  0.875 0.03125 0  0.90625 0.03125 0  0.9375 0.03125 0  0.96875 0.03125 0  1 0.03125 0  0 0.0625 0  0.03125 0.0625 0  0.0625 0.0625 0  0.09375 0.0625 0  0.125 0.0625 0  0.15625 0.0625 0  0.1875 0.0625 0  0.21875 0.0625 0  0.25 0.0625 0  0.28125 0.0625 0  0.3125 0.0625 0  0.34375 0.0625 0  0.375 0.0625 0  0.40625 0.0625 0  0.4375 0.0625 0  0.46875 0.0625 0  0.5 0.0625 0  0.53125 0.0625 0  0.5625 0.0625 0  0.59375 0.0625 0  0.625 0.0625 0  0.65625 0.0625 0  0.6875 0.0625 0  0.71875 0.0625 0  0.75 0.0625 0  0.78125 0.0625 0  0.8125 0.0625 0  0.84375 0.0625 0  0.875 0.0625 0  0.90625 0.0625 0  0.9375 0.0625 0  0.96875 0.0625 0  1 0.0625 0  0 0.09375 0  0.03125 0.09375 0  0.0625 0.09375 0  0.09375 0.09375 0  0.125 0.09375 0  0.15625 0.09375 0  0.1875 0.09375 0  0.21875 0.09375 0  0.25 0.09375 0  0.28125 0.09375 0  0.3125 0.09375 0  0.34375 0.09375 0  0.375 0.09375 0  0.40625 0.09375 0  0.4375 0.09375 0  0.46875 0.09375 0  0.5 0.09375 0  0.53125 0.09375 0  0.5625 0.09375 0  0.59375 0.09375 0  0.625 0.09375 0  0.65625 0.09375 0  0.6875 0.09375 0  0.71875 0.09375 0  0.75 0.09375 0  0.78125 0.09375 0  0.8125 0.09375 0  0.84375 0.09375 0  0.875 0.09375 0  0.90625 0.09375 0  0.9375 0.09375 0  0.96875 0.09375 0  1 0.09375 0  0 0.125 0  0.03125 0.125 0  0.0625 0.125 0  0.09375 0.125 0  0.125 0.125 0  0.15625 0.125 0  0.1875 0.125 0  0.21875 0.125 0  0.25 0.125 0  0.28125 0.125 0  0.3125 0.125 0  0.34375 0.125 0  0.375 0.125 0  0.40625 0.125 0  0.4375 0.125 0  0.46875 0.125 0  0.5 0.125 0  0.53125 0.125 0  0.5625 0.125 0  0.59375 0.125 0  0.625 0.125 0  0.65625 0.125 0  0.6875 0.125 0  0.71875 0.125 0  0.75 0.125 0  0.78125 0.125 0  0.8125 0.125 0  0.84375 0.125 0  0.875 0.125 0  0.90625 0.125 0  0.9375 0.125 0  0.96875 0.125 0  1 0.125 0  0 0.15625 0  0.03125 0.15625 0  0.0625 0.15625 0  0.09375 0.15625 0  0.125 0.15625 0  0.15625 0.15625 0  0.1875 0.15625 0  0.21875 0.15625 0  0.25 0.15625 0  0.28125 0.15625 0  0.3125 0.15625 0  0.34375 0.15625 0  0.375 0.15625 0  0.40625 0.15625 0  0.4375 0.15625 0  0.46875 0.15625 0  0.5 0.15625 0  0.53125 0.15625 0  0.5625 0.15625 0  0.59375 0.15625 0  0.625 0.15625 0  0.65625 0.15625 0  0.6875 0.15625 0  0.71875 0.15625 0  0.75 0.15625 0  0.78125 0.15625 0  0.8125 0.15625 0  0.84375 0.15625 0  0.875 0.15625 0  0.90625 0.15625 0  0.9375 0.15625 0  0.96875 0.15625 0  1 0.15625 0  0 0.1875 0  0.03125 0.1875 0  0.0625 0.1875 0  0.09375 0.1875 0  0.125 0.1875 0  0.15625 0.1875 0  0.1875 0.1875 0  0.21875 0.1875 0  0.25 0.1875 0  0.28125 0.1875 0  0.3125 0.1875 0  0.34375 0.1875 0  0.375 0.1875 0  0.40625 0.1875 0  0.4375 0.1875 0  0.46875 0.1875 0  0.5 0.1875 0  0.53125 0.1875 0  0.5625 0.1875 0  0.59375 0.1875 0  0.625 0.1875 0  0.65625 0.1875 0  0.6875 0.1875 0  0.71875 0.1875 0  0.75 0.1875 0  0.78125 0.1875 0  0.8125 0.1875 0  0.84375 0.1875 0  0.875 0.1875 0  0.90625 0.1875 0  0.9375 0.1875 0  0.96875 0.1875 0  1 0.1875 0  0 0.21875 0  0.03125 0.21875 0  0.0625 0.21875 0  0.09375 0.21875 0  0.125 0.21875 0  0.15625 0.21875 0  0.1875 0.21875 0  0.21875 0.21875 0  0.25 0.21875 0  0.28125 0.21875 0  0.3125 0.21875 0  0.34375 0.21875 0  0.375 0.21875 0  0.40625 0.21875 0  0.4375 0.21875 0  0.46875 0.21875 0  0.5 0.21875 0  0.53125 0.21875 0  0.5625 0.21875 0  0.59375 0.21875 0  0.625 0.21875 0  0.65625 0.21875 0  0.6875 0.21875 0  0.71875 0.21875 0  0.75 0.21875 0  0.78125 0.21875 0  0.8125 0.21875 0  0.84375 0.21875 0  0.875 0.21875 0  0.90625 0.21875 0  0.9375 0.21875 0  0.96875 0.21875 0  1 0.21875 0  0 0.25 0  0.03125 0.25 0  0.0625 0.25 0  0.09375 0.25 0  0.125 0.25 0  0.15625 0.25 0  0.1875 0.25 0  0.21875 0.25 0  0.25 0.25 0  0.28125 0.25 0  0.3125 0.25 0  0.34375 0.25 0  0.375 0.25 0  0.40625 0.25 0  0.4375 0.25 0  0.46875 0.25 0  0.5 0.25 0  0.53125 0.25 0  0.5625 0.25 0  0.59375 0.25 0  0.625 0.25 0  0.65625 0.25 0  0.6875 0.25 0  0.71875 0.25 0  0.75 0.25 0  0.78125 0.25 0  0.8125 0.25 0  0.84375 0.25 0  0.875 0.25 0  0.90625 0.25 0  0.9375 0.25 0  0.96875 0.25 0  1 0.25 0  0 0.28125 0  0.03125 0.28125 0  0.0625 0.28125 0  0.09375 0.28125 0  0.125 0.28125 0  0.15625 0.28125 0  0.1875 0.28125 0  0.21875 0.28125 0  0.25 0.28125 0  0.28125 0.28125 0  0.3125 0.28125 0  0.34375 0.28125 0  0.375 0.28125 0  0.40625 0.28125 0  0.4375 0.28125 0  0.46875 0.28125 0  0.5 0.28125 0  0.53125 0.28125 0  0.5625 0.28125 0  0.59375 0.28125 0  0.625 0.28125 0  0.65625 0.28125 0  0.6875 0.28125 0  0.71875 0.28125 0  0.75 0.28125 0  0.78125 0.28125 0  0.8125 0.28125 0  0.84375 0.28125 0  0.875 0.28125 0  0.90625 0.28125 0  0.9375 0.28125 0  0.96875 0.28125 0  1 0.28125 0  0 0.3125 0  0.03125 0.3125 0  0.0625 0.3125 0  0.09375 0.3125 0  0.125 0.3125 0  0.15625 0.3125 0  0.1875 0.3125 0  0.21875 0.3125 0  0.25 0.3125 0  0.28125 0.3125 0  0.3125 0.3125 0  0.34375 0.3125 0  0.375 0.3125 0  0.40625 0.3125 0  0.4375 0.3125 0  0.46875 0.3125 0  0.5 0.3125 0  0.53125 0.3125 0  0.5625 0.3125 0  0.59375 0.3125 0  0.625 0.3125 0  0.65625 0.3125 0  0.6875 0.3125 0  0.71875 0.3125 0  0.75 0.3125 0  0.78125 0.3125 0  0.8125 0.3125 0  0.84375 0.3125 0  0.875 0.3125 0  0.90625 0.3125 0  0.9375 0.3125 0  0.96875 0.3125 0  1 0.3125 0  0 0.34375 0  0.03125 0.34375 0  0.0625 0.34375 0  0.09375 0.34375 0  0.125 0.34375 0  0.15625 0.34375 0  0.1875 0.34375 0  0.21875 0.34375 0  0.25 0.34375 0  0.28125 0.34375 0  0.3125 0.34375 0  0.34375 0.34375 0  0.375 0.34375 0  0.40625 0.34375 0  0.4375 0.34375 0  0.46875 0.34375 0  0.5 0.34375 0  0.53125 0.34375 0  0.5625 0.34375 0  0.59375 0.34375 0  0.625 0.34375 0  0.65625 0.34375 0  0.6875 0.34375 0  0.71875 0.34375 0  0.75 0.34375 0  0.78125 0.34375 0  0.8125 0.34375 0  0.84375 0.34375 0  0.875 0.34375 0  0.90625 0.34375 0  0.9375 0.34375 0  0.96875 0.34375 0  1 0.34375 0  0 0.375 0  0.03125 0.375 0  0.0625 0.375 0  0.09375 0.375 0  0.125 0.375 0  0.15625 0.375 0  0.1875 0.375 0  0.21875 0.375 0  0.25 0.375 0  0.28125 0.375 0  0.3125 0.375 0  0.34375 0.375 0  0.375 0.375 0  0.40625 0.375 0  0.4375 0.375 0  0.46875 0.375 0  0.5 0.375 0  0.53125 0.375 0  0.5625 0.375 0  0.59375 0.375 0  0.625 0.375 0  0.65625 0.375 0  0.6875 0.375 0  0.71875 0.375 0  0.75 0.375 0  0.78125 0.375 0  0.8125 0.375 0  0.84375 0.375 0  0.875 0.375 0  0.90625 0.375 0  0.9375 0.375 0  0.96875 0.375 0  1 0.375 0  0 0.40625 0  0.03125 0.40625 0  0.0625 0.40625 0  0.09375 0.40625 0  0.125 0.40625 0  0.15625 0.40625 0  0.1875 0.40625 0  0.21875 0.40625 0  0.25 0.40625 0  0.28125 0.40625 0  0.3125 0.40625 0  0.34375 0.40625 0  0.375 0.40625 0  0.40625 0.40625 0  0.4375 0.40625 0  0.46875 0.40625 0  0.5 0.40625 0  0.53125 0.40625 0  0.5625 0.40625 0  0.59375 0.40625 0  0.625 0.40625 0  0.65625 0.40625 0  0.6875 0.40625 0  0.71875 0.40625 0  0.75 0.40625 0  0.78125 0.40625 0  0.8125 0.40625 0  0.84375 0.40625 0  0.875 0.40625 0  0.90625 0.40625 0  0.9375 0.40625 0  0.96875 0.40625 0  1 0.40625 0  0 0.4375 0  0.03125 0.4375 0  0.0625 0.4375 0  0.09375 0.4375 0  0.125 0.4375 0  0.15625 0.4375 0  0.1875 0.4375 0  0.21875 0.4375 0  0.25 0.4375 0  0.28125 0.4375 0  0.3125 0.4375 0  0.34375 0.4375 0  0.375 0.4375 0  0.40625 0.4375 0  0.4375 0.4375 0  0.46875 0.4375 0  0.5 0.4375 0  0.53125 0.4375 0  0.5625 0.4375 0  0.59375 0.4375 0  0.625 0.4375 0  0.65625 0.4375 0  0.6875 0.4375 0  0.71875 0.4375 0  0.75 0.4375 0  0.78125 0.4375 0  0.8125 0.4375 0  0.84375 0.4375 0  0.875 0.4375 0  0.90625 0.4375 0  0.9375 0.4375 0  0.96875 0.4375 0  1 0.4375 0  0 0.46875 0  0.03125 0.46875 0  0.0625 0.46875 0  0.09375 0.46875 0  0.125 0.46875 0  0.15625 0.46875 0  0.1875 0.46875 0  0.21875 0.46875 0  0.25 0.46875 0  0.28125 0.46875 0  0.3125 0.46875 0  0.34375 0.46875 0  0.375 0.46875 0  0.40625 0.46875 0  0.4375 0.46875 0  0.46875 0.46875 0  0.5 0.46875 0  0.53125 0.46875 0  0.5625 0.46875 0  0.59375 0.46875 0  0.625 0.46875 0  0.65625 0.46875 0  0.6875 0.46875 0  0.71875 0.46875 0  0.75 0.46875 0  0.78125 0.46875 0  0.8125 0.46875 0  0.84375 0.46875 0  0.875 0.46875 0  0.90625 0.46875 0  0.9375 0.46875 0  0.96875 0.46875 0  1 0.46875 0  0 0.5 0  0.03125 0.5 0  0.0625 0.5 0  0.09375 0.5 0  0.125 0.5 0  0.15625 0.5 0  0.1875 0.5 0  0.21875 0.5 0  0.25 0.5 0  0.28125 0.5 0  0.3125 0.5 0  0.34375 0.5 0  0.375 0.5 0  0.40625 0.5 0  0.4375 0.5 0  0.46875 0.5 0  0.5 0.5 0  0.53125 0.5 0  0.5625 0.5 0  0.59375 0.5 0  0.625 0.5 0  0.65625 0.5 0  0.6875 0.5 0  0.71875 0.5 0  0.75 0.5 0  0.78125 0.5 0  0.8125 0.5 0  0.84375 0.5 0  0.875 0.5 0  0.90625 0.5 0  0.9375 0.5 0  0.96875 0.5 0  1 0.5 0  0 0.53125 0  0.03125 0.53125 0  0.0625 0.53125 0  0.09375 0.53125 0  0.125 0.53125 0  0.15625 0.53125 0  0.1875 0.53125 0  0.21875 0.53125 0  0.25 0.53125 0  0.28125 0.53125 0  0.3125 0.53125 0  0.34375 0.53125 0  0.375 0.53125 0  0.40625 0.53125 0  0.4375 0.53125 0  0.46875 0.53125 0  0.5 0.53125 0  0.53125 0.53125 0  0.5625 0.53125 0  0.59375 0.53125 0  0.625 0.53125 0  0.65625 0.53125 0  0.6875 0.53125 0  0.71875 0.53125 0  0.75 0.53125 0  0.78125 0.531
[...]
<CellData  Scalars="f_132302"> 
<DataArray  type="Float64"  Name="f_132302"  format="ascii">1.0671560263881690e-12   1.2109173722956069e-12   3.1073867049540157e-12   5.0950507056276173e-12   6.0971794150556312e-12   1.1318259207390979e-11   9.9745949336666809e-12   1.9861123443720481e-11   1.4589856621241704e-11   3.0391034698578139e-11   1.9765713896467271e-11   4.2503171181649577e-11   2.5303315497780730e-11   5.5732217084685153e-11   3.0989876529762699e-11   6.9569804139657338e-11   3.6606875493346107e-11   8.3484154555558241e-11   4.1938459345724119e-11   9.6940541099757231e-11   4.6779741856391719e-11   1.0942184638977211e-10   5.0944678742770501e-11   1.2044843780210016e-10   5.4273217907882059e-11   1.2959659835480688e-10   5.6637450409117423e-11   1.3651480721335986e-10   5.7946525966861912e-11   1.4093724513735449e-10   5.8150144207292444e-11   1.4269400639208976e-10   5.7240487513318727e-11   1.4171762500070643e-10   5.5252521228727024e-11   1.3804566472738637e-10   5.2262649680404050e-11   1.3181927341176053e-10   4.8385779621668643e-11   1.2327775731932729e-10   4.3770904344714608e-11   1.1274938407427103e-10   3.8595375441523582e-11   1.0063876823343338e-10   3.3058097215581395e-11   8.7411321175961225e-11   2.7371833944571073e-11   7.3575380698323569e-11   2.1755231104128395e-11   5.9662622938602234e-11   1.6423716472074806e-11   4.6207868976885206e-11   1.1583176914642361e-11   3.3727717341778696e-11   7.4190746609107135e-12   2.2703004227721432e-11   4.0807515930191301e-12   1.3556542861904789e-11   1.7699714295741323e-12   6.6296440404379249e-12   3.3345432759312936e-13   2.2505356304740641e-12   2.5318159232604871e-13   5.4422783861308214e-13   7.9405128818143091e-12   6.3278719465488071e-12   1.4317452551453671e-11   1.3993862970694657e-11   2.2457558544079461e-11   2.0736272649610698e-11   3.2592441508208816e-11   2.9205091124802864e-11   4.4299622520862532e-11   3.8820685377309178e-11   5.7127291839813581e-11   4.9210915141326931e-11   7.0582493755200533e-11   5.9977010202327578e-11   8.4148017388158587e-11   7.0704893391020282e-11   9.7302488742936924e-11   8.0982220550517859e-11   1.0954035932229119e-10   9.0414005468833156e-11   1.2039132735418923e-10   9.8637774103636195e-11   1.2943840627021043e-10   1.0533748209398605e-10   1.3633394505518407e-10   1.1025565595006372e-10   1.4081298422906443e-10   1.1320328611639530e-10   1.4270343423340482e-10   1.1406709008952965e-10   1.4193268520068243e-10   1.1281386582008477e-10   1.3853039421459254e-10   1.0949176782242186e-10   1.3262734306956631e-10   1.0422845682751955e-10   1.2445041052305258e-10   9.7226194041648153e-11   1.1431385231065822e-10   8.8754068491914358e-11   1.0260722461305950e-10   7.9137656104474309e-11   8.9780412169966879e-11   6.8746508370960140e-11   7.6326352969191430e-11   5.7979948138448630e-11   6.2762045718078355e-11   4.7251736028358083e-11   4.9608898513004563e-11   3.6974111481068163e-11   3.7371959947845832e-11   2.7542183566666479e-11   2.6522548813834861e-11   1.9317922843927117e-11   1.7476886377985325e-11   1.2618559283521883e-11   1.0574260003436577e-11   7.7002325416133645e-12   6.1248618100934574e-12   4.7495715528380377e-12   4.3349744116851663e-12   3.8531653461248276e-12   4.3049247968078278e-12   6.0148299502442389e-12   1.9617332731065244e-11   1.5318823157889558e-11   2.6934619769401325e-11   2.7759717555033261e-11   3.5164157337520528e-11   3.5226562350678733e-11   4.4526044768033836e-11   4.4803563152426838e-11   5.4556234100948418e-11   5.5052656617218316e-11   6.4870985860000501e-11   6.5615472039154826e-11   7.5074950623678020e-11   7.6092694101913327e-11   8.4775705085858594e-11   8.6080500204381291e-11   9.3600428149384715e-11   9.5195130008266389e-11   1.0120997021227406e-10   1.0308628155144478e-10   1.0731189089041261e-10   1.0945069049515721e-10   1.1167169012143238e-10   1.1404377033194840e-10   1.1412181759635720e-10   1.1668900917182230e-10   1.1456811080861339e-10   1.1728475127522045e-10   1.1299341351112047e-10   1.1580810277513515e-10   1.0945823512288106e-10   1.1231581102810330e-10   1.0409842556781668e-10   1.0694208360463267e-10   9.7119954830410930e-11   9.9893430637447978e-11   8.8790997791833826e-11   9.1440728685788514e-11   7.9431628466944038e-11   8.1908811064415149e-11   6.9401520128683673e-11   7.1663984621594294e-11   5.9086120905443191e-11   6.1099953143326017e-11   4.8881852752953243e-11   5.0622685179747931e-11   3.9180822989299492e-11   4.0634824849187842e-11   3.0355972150416920e-11   3.1520164572576322e-11   2.2745979803781613e-11   2.3629108653650756e-11   1.6644400109112452e-11   1.7264507251195531e-11   1.2284341262028176e-11   1.2671832451714635e-11   9.8308786053906002e-12   1.0026891809910618e-11   9.3691218694641505e-12   9.4354119857822835e-12   1.1462195169745715e-11   1.0786116894007645e-11   1.1893970164968024e-11   1.5923137275842975e-11   3.6207989814712667e-11   2.8018146881340150e-11   4.4509297549622999e-11   4.6134872734350877e-11   5.3807157288809968e-11   5.3675528652441958e-11   6.3722734855995555e-11   6.3720144946963390e-11   7.3781332816121333e-11   7.3765229126380712e-11   8.3612781020577622e-11   8.3575086406899815e-11   9.2839902186179920e-11   9.2781541790730246e-11   1.0110752765146256e-10   1.0102664108529776e-10   1.0809797478494823e-10   1.0799407695537304e-10   1.1354257516371442e-10   1.1341601172118725e-10   1.1723208440509535e-10   1.1708407020374716e-10   1.1902471069089422e-10   1.1885728061802954e-10   1.1885156147443034e-10   1.1866749358234320e-10   1.1671928950260911e-10   1.1652199901054335e-10   1.1270983637859454e-10   1.1250324496269440e-10   1.0697728317161395e-10   1.0676566862544441e-10   9.9741928940308946e-11   9.9529761056687064e-11   9.1281824643847752e-11   9.1073593665827016e-11   8.1922087736659740e-11   8.1722132004407806e-11   7.2022408024063066e-11   7.1834747495393731e-11   6.1963225343528101e-11   6.1791406964427245e-11   5.2131107308465465e-11   5.1978071144726883e-11   4.2903904985959592e-11   4.2771860385368428e-11   3.4636181635562358e-11   3.4526573484536491e-11   2.7645789271000895e-11   2.7559043829061521e-11   2.2200966138749690e-11   2.2137148583634131e-11   1.8511928268270671e-11   1.8468955882553598e-11   1.6719053092576226e-11   1.6695994091455275e-11   1.6895866086805467e-11   1.6886035241646629e-11   1.8940274775057679e-11   1.9045302004942159e-11   2.4164108931705727e-11   2.2826644160017997e-11   2.3355979281228922e-11   3.1331825656787665e-11   5.7059933660996901e-11   4.3929195016275390e-11   6.5706619222974682e-11   6.8336484613273341e-11   7.5507776047887878e-11   7.5260554041738956e-11   8.5222070316076876e-11   8.5226211642655374e-11   9.4468931062946165e-11   9.4466021089186221e-11   1.0291350472360642e-10   1.0290535357481255e-10   1.1022814115433368e-10   1.1022021329271608e-10   1.1613147777211495e-10   1.1612257998738319e-10   1.2039676710691037e-10   1.2038721601163937e-10   1.2286005355658153e-10   1.2285000734009971e-10   1.2342666298237800e-10   1.2341631769426901e-10   1.2207481233454225e-10   1.2206437399180398e-10   1.1885644720474394e-10   1.1884612467815009e-10   1.1389524425606784e-10   1.1388524127966288e-10   1.0738185761916877e-10   1.0737236516543146e-10   9.9566591708187348e-11   9.9557780843600291e-11   9.0749781907076042e-11   9.0741797381831080e-11   8.1270252718609859e-11   8.1263207536488442e-11   7.1492296876240834e-11   7.1486268070990599e-11   6.1791675743985622e-11   6.1786701577287646e-11   5.2541179406385960e-11   5.2537257706764163e-11   4.4096298667458819e-11   4.4093389117532514e-11   3.6781574248095698e-11   3.6779590001455757e-11   3.0878080162210219e-11   3.0876936416783808e-11   2.6612797464226043e-11   2.6612244826094035e-11   2.4149334127749647e-11   2.4149502315173361e-11   2.3583054788361052e-11   2.3583189907901718e-11   2.4934570618270497e-11   2.4935176365780518e-11   2.8165089415594833e-11   2.8153769782323479e-11   3.2942474346360483e-11   3.3139099416527280e-11   4.1578595499982533e-11   3.9282949097211107e-11   3.8263687699310427e-11   5.1105346182311654e-11   8.1369660883418293e-11   6.2439654742627878e-11   8.9704420272500956e-11   9.3505364638628832e-11   9.9528054749739866e-11   9.9158095563367954e-11   1.0849979961697761e-10   1.0851896852059497e-10   1.1637652244898706e-10   1.1638221031209734e-10   1.2286936281509999e-10   1.2287089520659499e-10   1.2772298603824938e-10   1.2772724111326389e-10   1.3075170574236201e-10   1.3075649470070255e-10   1.3183915547134728e-10   1.3184481891335413e-10   1.3094350301443699e-10   1.3094990716382390e-10   1.2809916309010459e-10   1.2810620406265605e-10   1.2341543398007421e-10   1.2342297974664235e-10   1.1707230338696029e-10   1.1708020293552628e-10   1.0931353055305362e-10   1.0932161915960701e-10   1.0043727824463772e-10   1.0044538373703844e-10   9.0784654182945216e-11   9.0792603602507153e-11   8.0726602249915877e-11   8.0734228576269255e-11   7.0649647216308473e-11   7.0656795870763321e-11   6.0941040785755683e-11   6.0947575661230678e-11   5.1973879746362003e-11   5.1979688566483371e-11   4.4092768509498856e-11   4.4097766949206075e-11   3.7600574644174760e-11   3.7604711458335378e-11   3.2746799206161523e-11   3.2750049486319405e-11   2.9717951907532674e-11   2.9720354986423226e-11   2.8630519571435248e-11   2.8632047577844518e-11   2.9526114896234128e-11   2.9527017451848771e-11   3.2370592796487772e-11   3.2370862436991731e-11   3.7054023955836097e-11   3.7053842350461283e-11   4.3419143171903292e-11   4.3397126684886272e-11   5.0878214769596291e-11   5.1191315853815062e-11   6.2973893335849968e-11   5.9557991408091736e-11   5.5969965265424611e-11   7.4567498847319395e-11   1.0820355010273234e-10   8.2838462569301214e-11   1.1558430060296089e-10   1.2067578173770956e-10   1.2496098539183080e-10   1.2445375431524593e-10   1.3267560047952665e-10   1.3270431609028537e-10   1.3866183648172687e-10   1.3866564148509602e-10   1.4269598559503903e-10   1.4269346878106003e-10   1.4461605828924448e-10   1.4461565716980127e-10   1.4435001095873704e-10   1.4434880326114757e-10   1.4190783858750946e-10   1.4190645029682522e-10   1.3738338961030994e-10   1.3738173318389115e-10   1.3095053581861405e-10   1.3094865141222303e-10   1.2285648129322545e-10   1.2285440641000372e-10   1.1341227143534037e-10   1.1341005270312102e-10   1.0298083837235135e-10   1.0297852828001004e-10   9.1963053649634265e-11   9.1960708300042442e-11   8.0782322804787826e-11   8.0779999690963570e-11   6.9868314015520218e-11   6.9866069802540672e-11   5.9640446147421343e-11   5.9638334518970061e-11   5.0491770749076874e-11   5.0489840384963482e-11   4.2773867383909399e-11   4.2772160156863912e-11   3.6783333096100234e-11   3.6781882232571202e-11   3.2750383223955052e-11   3.2749213499001294e-11   3.0830012065137435e-11   3.0829131676316615e-11   3.1096009619814270e-11   3.1095436717965019e-11   3.3538211598707811e-11   3.3537893663084587e-11   3.8062744490185580e-11   3.8062670243824564e-11   4.4495457571766164e-11   4.4496041257558895e-11   5.2589342101747685e-11   5.2589688385652026e-11   6.2066343792804745e-11   6.2034796147196875e-11   7.2066831461525826e-11   7.2513310868955161e-11   8.7544042529452689e-11   8.2874992347090821e-11   7.5817496667012214e-11   1.0082081448528284e-10   1.3653050131121713e-10   1.0434178600250461e-10   1.4235091800797033e-10   1.4880324816977883e-10   1.5082580504837079e-10   1.5017440627204058e-10   1.5681124072661656e-10   1.5685129765204843e-10   1.6045502504310766e-10   1.6045957852964282e-10   1.6161536900242875e-10   1.6161310734862164e-10   1.6023939631089443e-10   1.6024018183190410e-10   1.5638236485577095e-10   1.5638251661963227e-10   1.5019204826272271e-10   1.5019238660204490e-10   1.4190639642111707e-10   1.4190675756675219e-10   1.3184381776249466e-10   1.3184421339819203e-10   1.2039100682552660e-10   1.2039142421404087e-10   1.0798808537231074e-10   1.0798851458395194e-10   9.5111687658454734e-11   9.5112118769896587e-11   8.2256644087941329e-11   8.2257067400592315e-11   6.9916965166943842e-11   6.9917371453438224e-11   5.8566856961119060e-11   5.8567237741496681e-11   4.8642497660001711e-11   4.8642845491640885e-11   4.0525275578155195e-11   4.0525584323711599e-11   3.4527132753531147e-11   3.4527397809068381e-11   3.0878577651116867e-11   3.0878795855526460e-11   2.9719826069891254e-11   2.9719996852443613e-11   3.1095418355657076e-11   3.1095538465764850e-11   3.4952491956834604e-11   3.4952570991448552e-11   4.1142839877072861e-11   4.1142878053364989e-11   4.9428728257814186e-11   4.9428557871112380e-11   5.9490811901977246e-11   5.9491536251995185e-11   7.0943676891654810e-11   7.0943327105201674e-11   8.3390764024528720e-11   8.3347320331000554e-11   9.5694676602080281e-11   9.6281854719169811e-11   1.1434542550150841e-10   1.0833457876149280e-10   9.7039179818613599e-11   1.2884856431685375e-10   1.6526195392634048e-10   1.2612329704747410e-10   1.6897556368821414e-10   1.7680677694873093e-10   1.7612884504973055e-10   1.7533167972193511e-10   1.7998068886724817e-10   1.8003224417407150e-10   1.8092202520572153e-10   1.8092687196627685e-10   1.7890558149377513e-10   1.7890279209889632e-10   1.7399914538785562e-10   1.7399986793941488e-10   1.6639432658785628e-10   1.6639417310770437e-10   1.5638274651837975e-10   1.5638274385693233e-10   1.4434925351046476e-10   1.4434920128096280e-10   1.3075627439022548e-10   1.3075620312468257e-10   1.1612617819425459e-10   1.1612608459330847e-10   1.0102118902307396e-10   1.0102107625718199e-10   8.6021780707457332e-11   8.6021652915745536e-11   7.1704370166041151e-11   7.1704232437295192e-11   5.8619166128588493e-11   5.8619024147277808e-11   4.7269025041150046e-11   4.7268884747895982e-11   3.8090126684741225e-11   3.8089993968959018e-11   3.1435212161991205e-11   3.1435092568747321e-11   2.7560028425053378e-11   2.7559926871854882e-11   2.6613500467636149e-11   2.6613420776759336e-11   2.8632007753933731e-11   2.8631953103269737e-11   3.3537989417536763e-11   3.3537959095988855e-11   4.1142921345499815e-11   4.1142913796234869e-11   5.1154523261980333e-11   5.1154578010027580e-11   6.3188409009277887e-11   6.3188153414936895e-11   7.6780478963387969e-11   7.6781722727605519e-11   9.1410948358804159e-11   9.1410414316046962e-11   1.0657162256481839e-10   1.0651691204325413e-10   1.2085215301897686e-10   1.2158496355622443e-10   1.4234629363207417e-10   1.3495965305612864e-10   1.1881985320369968e-10   1.5757690491059540e-10   1.9329376335581300e-10   1.4734594878908895e-10   1.9443502488322453e-10   2.0361016358993162e-10   1.9989766881481749e-10   1.9895876463172185e-10   2.0129337638379378e-10   2.0135626760147612e-10   1.9927578777251779e-10   1.9928088017266002e-10   1.9390116684463380e-10   1.9389800477800652e-10   1.8536508217335634e-10   1.8536594650433370e-10   1.7399930957853229e-10   1.7399916459736696e-10   1.6023981921765773e-10   1.6023987430651201e-10   1.4461552847850609e-10   1.4461554244935789e-10   1.2772684889294558e-10   1.2772685940681105e-10   1.1022280439998393e-10   1.1022280464960046e-10   9.2776063883308227e-11   9.2776054703357024e-11   7.6057093966990876e-11   7.6057076393659091e-11   6.0708393776453619e-11   6.0708369544635514e-11   4.7319804235594106e-11   4.7319775520994969e-11   3.6405841009087067e-11   3.6405810206976414e-11   2.8385922113073337e-11   2.8385891641985137e-11   2.3568250075703208e-11   2.3568222183423007e-11   2.2137968062875579e-11   2.2137944629273928e-11   2.4150045245717405e-11   2.4150027452482682e-11   2.9527164192065902e-11   2.9527152678786625e-11   3.8062692843678864e-11   3.8062686909202506e-11   4.9428634711652753e-11   4.9428622432993052e-11   6.3188127595805466e-11   6.3188194955831801e-11   7.8812963132318352e-11   7.8812532146083507e-11   9.5700277598840094e-11   9.5701911309263109e-11   1.1320510176652604e-10   1.1320410177266833e-10   1.3071875266074202e-10   1.3065280923365934e-10   1.4657322678100065e-10   1.4744984224922729e-10   1.7047136661251179e-10   1.6172664008157991e-10   1.4032259034338358e-10   1.8590080425407108e-10   2.1954866321462151e-10   1.6719415764774568e-10   2.1775089628615178e-10   2.2818334975966959e-10   2.2121883995685815e-10   2.2014767644004692e-10   2.1993026432172537e-10   2.2000388900738807e-10   2.1481103271209539e-10   2.1481627032909204e-10   2.0602599238580234e-10   2.0602250298701213e-10   1.9390067281750389e-10   1.9390164106880559e-10   1.7890540798527545e-10   1.7890523334411800e-10   1.6161547357655060e-10   1.6161552474969652e-10   1.4269549705698431e-10   1.4269549914938608e-10   1.2287253461443763e-10   1.2287253360613029e-10   1.0290837496694848e-10   1.0290836366529578e-10   8.3570228077759273e-11   8.3570208218620610e-11   6.5601246729128917e-11   6.5601219812771240e-11   4.9691967617246351e-11   4.9691935737804714e-11   3.6453774663054235e-11   3.6453740208110966e-11   2.6395404109517243e-11   2.6395369534681780e-11   1.9903394253904719e-11   1.9903361874466805e-11   1.7227231165504048e-11   1.7227202950920882e-11   1.8469761236952969e-11   1.8469738607586836e-11   2.3583239062880696e-11   2.3583222626508441e-11   3.2371162385825109e-11   3.2371151753379635e-11   4.4495821730332690e-11   4.4495817163407950e-11   5.9491301079398651e-11   5.9491280556652856e-11   7.6781207715812205e-11   7.6781303695470687e-11   9.5701871781578550e-11   9.5701298823024252e-11   1.1552299134887624e-10   1.1552507044279632e-10   1.3548841156155566e-10   1.3548694840788755e-10   1.5490397022135057e-10   1.5482757469418548e-10   1.7186920672628114e-10   1.7288261680264598e-10   1.9763956177867110e-10   1.8760699630916784e-10   1.6072096739480753e-10   2.1273202290242571e-10   2.4301767929498875e-10   1.8490515464300458e-10   2.3802715913579160e-10   2.4958200184496333e-10   2.3927299047064687e-10   2.3808413236482289e-10   2.3517513784148338e-10   2.3525848470367024e-10   2.2693074046264884e-10   2.2693601991912893e-10   2.1481409286312051e-10   2.1481034362858161e-10   1.9927786820601044e-10   1.9927892492608043e-10   1.8092403212664811e-10   1.8092383978372820e-10   1.6045677550425306e-10   1.6045683232392136e-10   1.3866286128509972e-10   1.3866286476188472e-10   1.1637978288799173e-10   1.1637978539864261e-10   9.4463871138918426e-11   9.4463864849673887e-11   7.3757340771206000e-11   7.3757327723193438e-11   5.5055931045023879e-11   5.5055912610665319e-11   3.9078325658494606e-11   3.9078303647524569e-11   2.6438534436322776e-11   2.6438510789842837e-11   1.7622297515158848e-11   1.7622274113088328e-11   1.2968418806093712e-11   1.2968397283754635e-11   1.2655746107340977e-11   1.2655727677787206e-11   1.6696298215706906e-11   1.6696283497654673e-11   2.4934803148065108e-11   2.4934792001619046e-11   3.7054665562553614e-11   3.7054656604069752e-11   5.2590129047146587e-11   5.2590123684530456e-11   7.0944210568050895e-11   7.0944177390222806e-11   9.1411399875398480e-11   9.1411516866489302e-11   1.1320613142142577e-10   1.1320541313493988e-10   1.3548688749703366e-10   1.3548939072932702e-10   1.5740459808298224e-10   1.5740261872710628e-10   1.7819791408338863e-10   1.7811216567402667e-10   1.9576805021390222e-10   1.9690589732364126e-10   2.2280688576352021e-10   2.1160613571680748e-10   1.7923108063048620e-10   2.3703936096098233e-10   2.6279891071875297e-10   1.9979830337145981e-10   2.5448460764436911e-10   2.6698379785817205e-10   2.5336630666366836e-10   2.5207884103836429e-10   2.4644214018570442e-10   2.4653382645237618e-10   2.3516915382491181e-10   2.3517437040944732e-10   2.1992774534175703e-10   2.1992381263097457e-10   2.0129002846508700e-10   2.0129115144716048e-10   1.7997761492342454e-10   1.7997741081457766e-10   1.5680826489228301e-10   1.5680832628386282e-10   1.3267260791230521e-10   1.3267261226736277e-10   1.0849812355686419e-10   1.0849812803180915e-10   8.5213829101787369e-11   8.5213825566921688e-11   6.3714525287230300e-11   6.3714516137886538e-11   4.4826417260001596e-11   4.4826403870656631e-11   2.927536