<?xml version="1.0"?>
<VTKFile type="UnstructuredGrid"  version="0.1"  >
<UnstructuredGrid>
<Piece  NumberOfPoints="25" NumberOfCells="32">
<Points>
<DataArray  type="Float64"  NumberOfComponents="3"  format="ascii">0 0 0  0.25 0 0  0.5 0 0  0.75 0 0  1 0 0  0 0.25 0  0.25 0.25 0  0.5 0.25 0  0.75 0.25 0  1 0.25 0  0 0.5 0  0.25 0.5 0  0.5 0.5 0  0.75 0.5 0  1 0.5 0  0 0.75 0  0.25 0.75 0  0.5 0.75 0  0.75 0.75 0  1 0.75 0  0 1 0  0.25 1 0  0.5 1 0  0.75 1 0  1 1 0  </DataArray>
</Points>
<Cells>
<DataArray  type="UInt32"  Name="connectivity"  format="ascii">0 1 6  0 5 6  1 2 7  1 6 7  2 3 8  2 7 8  3 4 9  3 8 9  5 6 11  5 10 11  6 7 12  6 11 12  7 8 13  7 12 13  8 9 14  8 13 14  10 11 16  10 15 16  11 12 17  11 16 17  12 13 18  12 17 18  13 14 19  13 18 19  15 16 21  15 20 21  16 17 22  16 21 22  17 18 23  17 22 23  18 19 24  18 23 24  </DataArray>
<DataArray  type="UInt32"  Name="offsets"  format="ascii">3 6 9 12 15 18 21 24 27 30 33 36 39 42 45 48 51 54 57 60 63 66 69 72 75 78 81 84 87 90 93 96 </DataArray>
<DataArray  type="UInt8"  Name="types"  format="ascii">5 5 5 5 5 5 5 5 5 5 5 5 5 5 5 5 5 5 5 5 5 5 5 5 5 5 5 5 5 5 5 5 </DataArray>
</Cells>
<CellData  Scalars="f_44023"> 
<DataArray  type="Float64"  Name="f_44023"  format="ascii">8.9412890314426841e-02   9.1961963676110398e-02   6.4871820476219880e-02   1.2621001328135423e-01   1.6705904278857535e-02   7.7006358125882843e-02   2.7387896261121210e-02   4.8376885607482635e-02   2.9783386058749595e-01   2.3748884091401323e-01   1.0208443990449576e-01   9.9538777352004559e-02   5.1247215215918504e-02   5.1389599266191348e-02   1.8333387876161877e-01   2.4460191955644647e-01   2.4489856871610155e-01   1.8359224758547926e-01   5.1456707414743529e-02   5.1303610278576287e-02   9.9230804108672521e-02   1.0177247090974316e-01   2.3779525824617370e-01   2.9811301110591537e-01   4.8782992738647904e-02   2.7804716476018492e-02   7.6829904993545528e-02   1.6567411788713935e-02   1.2619197957045930e-01   6.4887896313105375e-02   9.2421637315512090e-02   8.9870036649091545e-02   </DataArray> 
</CellData> 
</Piece>
</UnstructuredGrid>
</VTKFile>