<?xml version="1.0"?>
<VTKFile type="UnstructuredGrid"  version="0.1"  >
<UnstructuredGrid>
<Piece  NumberOfPoints="81" NumberOfCells="128">
<Points>
<DataArray  type="Float64"  NumberOfComponents="3"  format="ascii">0 0 0  0.125 0 0  0.25 0 0  0.375 0 0  0.5 0 0  0.625 0 0  0.75 0 0  0.875 0 0  1 0 0  0 0.125 0  0.125 0.125 0  0.25 0.125 0  0.375 0.125 0  0.5 0.125 0  0.625 0.125 0  0.75 0.125 0  0.875 0.125 0  1 0.125 0  0 0.25 0  0.125 0.25 0  0.25 0.25 0  0.375 0.25 0  0.5 0.25 0  0.625 0.25 0  0.75 0.25 0  0.875 0.25 0  1 0.25 0  0 0.375 0  0.125 0.375 0  0.25 0.375 0  0.375 0.375 0  0.5 0.375 0  0.625 0.375 0  0.75 0.375 0  0.875 0.375 0  1 0.375 0  0 0.5 0  0.125 0.5 0  0.25 0.5 0  0.375 0.5 0  0.5 0.5 0  0.625 0.5 0  0.75 0.5 0  0.875 0.5 0  1 0.5 0  0 0.625 0  0.125 0.625 0  0.25 0.625 0  0.375 0.625 0  0.5 0.625 0  0.625 0.625 0  0.75 0.625 0  0.875 0.625 0  1 0.625 0  0 0.75 0  0.125 0.75 0  0.25 0.75 0  0.375 0.75 0  0.5 0.75 0  0.625 0.75 0  0.75 0.75 0  0.875 0.75 0  1 0.75 0  0 0.875 0  0.125 0.875 0  0.25 0.875 0  0.375 0.875 0  0.5 0.875 0  0.625 0.875 0  0.75 0.875 0  0.875 0.875 0  1 0.875 0  0 1 0  0.125 1 0  0.25 1 0  0.375 1 0  0.5 1 0  0.625 1 0  0.75 1 0  0.875 1 0  1 1 0  </DataArray>
</Points>
<Cells>
<DataArray  type="UInt32"  Name="connectivity"  format="ascii">0 1 10  0 9 10  1 2 11  1 10 11  2 3 12  2 11 12  3 4 13  3 12 13  4 5 14  4 13 14  5 6 15  5 14 15  6 7 16  6 15 16  7 8 17  7 16 17  9 10 19  9 18 19  10 11 20  10 19 20  11 12 21  11 20 21  12 13 22  12 21 22  13 14 23  13 22 23  14 15 24  14 23 24  15 16 25  15 24 25  16 17 26  16 25 26  18 19 28  18 27 28  19 20 29  19 28 29  20 21 30  20 29 30  21 22 31  21 30 31  22 23 32  22 31 32  23 24 33  23 32 33  24 25 34  24 33 34  25 26 35  25 34 35  27 28 37  27 36 37  28 29 38  28 37 38  29 30 39  29 38 39  30 31 40  30 39 40  31 32 41  31 40 41  32 33 42  32 41 42  33 34 43  33 42 43  34 35 44  34 43 44  36 37 46  36 45 46  37 38 47  37 46 47  38 39 48  38 47 48  39 40 49  39 48 49  40 41 50  40 49 50  41 42 51  41 50 51  42 43 52  42 51 52  43 44 53  43 52 53  45 46 55  45 54 55  46 47 56  46 55 56  47 48 57  47 56 57  48 49 58  48 57 58  49 50 59  49 58 59  50 51 60  50 59 60  51 52 61  51 60 61  52 53 62  52 61 62  54 55 64  54 63 64  55 56 65  55 64 65  56 57 66  56 65 66  57 58 67  57 66 67  58 59 68  58 67 68  59 60 69  59 68 69  60 61 70  60 69 70  61 62 71  61 70 71  63 64 73  63 72 73  64 65 74  64 73 74  65 66 75  65 74 75  66 67 76  66 75 76  67 68 77  67 76 77  68 69 78  68 77 78  69 70 79  69 78 79  70 71 80  70 79 80  </DataArray>
<DataArray  type="UInt32"  Name="offsets"  format="ascii">3 6 9 12 15 18 21 24 27 30 33 36 39 42 45 48 51 54 57 60 63 66 69 72 75 78 81 84 87 90 93 96 99 102 105 108 111 114 117 120 123 126 129 132 135 138 141 144 147 150 153 156 159 162 165 168 171 174 177 180 183 186 189 192 195 198 201 204 207 210 213 216 219 222 225 228 231 234 237 240 243 246 249 252 255 258 261 264 267 270 273 276 279 282 285 288 291 294 297 300 303 306 309 312 315 318 321 324 327 330 333 336 339 342 345 348 351 354 357 360 363 366 369 372 375 378 381 384 </DataArray>
<DataArray  type="UInt8"  Name="types"  format="ascii">5 5 5 5 5 5 5 5 5 5 5 5 5 5 5 5 5 5 5 5 5 5 5 5 5 5 5 5 5 5 5 5 5 5 5 5 5 5 5 5 5 5 5 5 5 5 5 5 5 5 5 5 5 5 5 5 5 5 5 5 5 5 5 5 5 5 5 5 5 5 5 5 5 5 5 5 5 5 5 5 5 5 5 5 5 5 5 5 5 5 5 5 5 5 5 5 5 5 5 5 5 5 5 5 5 5 5 5 5 5 5 5 5 5 5 5 5 5 5 5 5 5 5 5 5 5 5 5 </DataArray>
</Cells>
<CellData  Scalars="f_44166"> 
<DataArray  type="Float64"  Name="f_44166"  format="ascii">7.2369150217953298e-09   6.6974064723664692e-09   5.2387925188404759e-09   4.7080475896035765e-09   2.4029443513600852e-09   2.1321375160453477e-09   3.9061022435521553e-10   3.3519733730997606e-10   3.8204329925907796e-10   3.7633141581593362e-10   2.3775788952198056e-09   2.2132814284634859e-09   5.2192179067626716e-09   4.8804676170813804e-09   7.2268459863039650e-09   6.4220030705125924e-09   7.0197299297240794e-09   4.0812056677841148e-09   5.9367710279122323e-09   2.9538787095206815e-09   4.2660942041626518e-09   2.4087568125613974e-09   2.8626911961165820e-09   2.3093107665369973e-09   2.5508487886884608e-09   2.7836783636204229e-09   3.4918467753675957e-09   3.5287041096443586e-09   5.2646316628843773e-09   4.2269424524024620e-09   6.3966863642441389e-09   3.9162001895952353e-09   4.8368072066849365e-09   1.3246766378430221e-09   5.3109833249934955e-09   1.4858819904304044e-09   5.7595219109798050e-09   3.0114569744315749e-09   5.5364818233867754e-09   4.6213972706807542e-09   4.8079725978967480e-09   5.4650170081456000e-09   3.9823886238827817e-09   5.0175945303890503e-09   3.6702329346932595e-09   3.6167339712048683e-09   3.4733403614188322e-09   1.7381753349179018e-09   2.4144703522395613e-09   1.1452022280951224e-11   4.5154146835302410e-09   1.0920070225899664e-09   6.8094997203875590e-09   3.7856783320091393e-09   7.6476659912832132e-09   6.4787779487676986e-09   6.5760720823557183e-09   7.6171275067178487e-09   4.2167329829326450e-09   6.5176175743301220e-09   2.0169076049725783e-09   3.8371289658192970e-09   9.2021453350059928e-10   1.1441079093427784e-09   1.1442915098971656e-09   9.1649069292828624e-10   3.8370478682160633e-09   2.0182637377766594e-09   6.5172630660625762e-09   4.2165597129579490e-09   7.6166813386548653e-09   6.5757507094532769e-09   6.4784650780198031e-09   7.6472354317067754e-09   3.7854846469097205e-09   6.8091968258426938e-09   1.0921586258269338e-09   4.5162751151945979e-09   1.1060491145588274e-11   2.4106961835338491e-09   1.7346835793081870e-09   3.4665798410829034e-09   3.6184924404090860e-09   3.6730392930276890e-09   5.0176443415162278e-09   3.9824515825935761e-09   5.4649846801148516e-09   4.8080749179623997e-09   4.6214037002027338e-09   5.5364515348562635e-09   3.0112712005969746e-09   5.7596322624126427e-09   1.4873691224848950e-09   5.3117952692139845e-09   1.3206787393860386e-09   4.8312282336961257e-09   3.9082769321088344e-09   6.3830926679691676e-09   4.2277305698745867e-09   5.2673088575746684e-09   3.5260628507896549e-09   3.4896872753319556e-09   2.7812133472519128e-09   2.5484408049870614e-09   2.3075280060601129e-09   2.8600863331946644e-09   2.4081950908756516e-09   4.2635549819630486e-09   2.9555362194799235e-09   5.9335820328837276e-09   4.0751930163028138e-09   7.0156688044220621e-09   6.4092722508041846e-09   7.2268459863039832e-09   4.8851901100339091e-09   5.2200807833292673e-09   2.2141165054479570e-09   2.3784614563316198e-09   3.7763063906404206e-10   3.8325172037948984e-10   3.3610084075417518e-10   3.9180761955837144e-10   2.1320499395457861e-09   2.4039552382763412e-09   4.7057295171637875e-09   5.2394255659964676e-09   6.6926896152790072e-09   7.2370987762165612e-09   </DataArray> 
</CellData> 
</Piece>
</UnstructuredGrid>
</VTKFile>