<?xml version="1.0"?>
<VTKFile type="UnstructuredGrid"  version="0.1"  >
<UnstructuredGrid>
<Piece  NumberOfPoints="81" NumberOfCells="128">
<Points>
<DataArray  type="Float64"  NumberOfComponents="3"  format="ascii">0 0 0  0.125 0 0  0.25 0 0  0.375 0 0  0.5 0 0  0.625 0 0  0.75 0 0  0.875 0 0  1 0 0  0 0.125 0  0.125 0.125 0  0.25 0.125 0  0.375 0.125 0  0.5 0.125 0  0.625 0.125 0  0.75 0.125 0  0.875 0.125 0  1 0.125 0  0 0.25 0  0.125 0.25 0  0.25 0.25 0  0.375 0.25 0  0.5 0.25 0  0.625 0.25 0  0.75 0.25 0  0.875 0.25 0  1 0.25 0  0 0.375 0  0.125 0.375 0  0.25 0.375 0  0.375 0.375 0  0.5 0.375 0  0.625 0.375 0  0.75 0.375 0  0.875 0.375 0  1 0.375 0  0 0.5 0  0.125 0.5 0  0.25 0.5 0  0.375 0.5 0  0.5 0.5 0  0.625 0.5 0  0.75 0.5 0  0.875 0.5 0  1 0.5 0  0 0.625 0  0.125 0.625 0  0.25 0.625 0  0.375 0.625 0  0.5 0.625 0  0.625 0.625 0  0.75 0.625 0  0.875 0.625 0  1 0.625 0  0 0.75 0  0.125 0.75 0  0.25 0.75 0  0.375 0.75 0  0.5 0.75 0  0.625 0.75 0  0.75 0.75 0  0.875 0.75 0  1 0.75 0  0 0.875 0  0.125 0.875 0  0.25 0.875 0  0.375 0.875 0  0.5 0.875 0  0.625 0.875 0  0.75 0.875 0  0.875 0.875 0  1 0.875 0  0 1 0  0.125 1 0  0.25 1 0  0.375 1 0  0.5 1 0  0.625 1 0  0.75 1 0  0.875 1 0  1 1 0  </DataArray>
</Points>
<Cells>
<DataArray  type="UInt32"  Name="connectivity"  format="ascii">0 1 10  0 9 10  1 2 11  1 10 11  2 3 12  2 11 12  3 4 13  3 12 13  4 5 14  4 13 14  5 6 15  5 14 15  6 7 16  6 15 16  7 8 17  7 16 17  9 10 19  9 18 19  10 11 20  10 19 20  11 12 21  11 20 21  12 13 22  12 21 22  13 14 23  13 22 23  14 15 24  14 23 24  15 16 25  15 24 25  16 17 26  16 25 26  18 19 28  18 27 28  19 20 29  19 28 29  20 21 30  20 29 30  21 22 31  21 30 31  22 23 32  22 31 32  23 24 33  23 32 33  24 25 34  24 33 34  25 26 35  25 34 35  27 28 37  27 36 37  28 29 38  28 37 38  29 30 39  29 38 39  30 31 40  30 39 40  31 32 41  31 40 41  32 33 42  32 41 42  33 34 43  33 42 43  34 35 44  34 43 44  36 37 46  36 45 46  37 38 47  37 46 47  38 39 48  38 47 48  39 40 49  39 48 49  40 41 50  40 49 50  41 42 51  41 50 51  42 43 52  42 51 52  43 44 53  43 52 53  45 46 55  45 54 55  46 47 56  46 55 56  47 48 57  47 56 57  48 49 58  48 57 58  49 50 59  49 58 59  50 51 60  50 59 60  51 52 61  51 60 61  52 53 62  52 61 62  54 55 64  54 63 64  55 56 65  55 64 65  56 57 66  56 65 66  57 58 67  57 66 67  58 59 68  58 67 68  59 60 69  59 68 69  60 61 70  60 69 70  61 62 71  61 70 71  63 64 73  63 72 73  64 65 74  64 73 74  65 66 75  65 74 75  66 67 76  66 75 76  67 68 77  67 76 77  68 69 78  68 77 78  69 70 79  69 78 79  70 71 80  70 79 80  </DataArray>
<DataArray  type="UInt32"  Name="offsets"  format="ascii">3 6 9 12 15 18 21 24 27 30 33 36 39 42 45 48 51 54 57 60 63 66 69 72 75 78 81 84 87 90 93 96 99 102 105 108 111 114 117 120 123 126 129 132 135 138 141 144 147 150 153 156 159 162 165 168 171 174 177 180 183 186 189 192 195 198 201 204 207 210 213 216 219 222 225 228 231 234 237 240 243 246 249 252 255 258 261 264 267 270 273 276 279 282 285 288 291 294 297 300 303 306 309 312 315 318 321 324 327 330 333 336 339 342 345 348 351 354 357 360 363 366 369 372 375 378 381 384 </DataArray>
<DataArray  type="UInt8"  Name="types"  format="ascii">5 5 5 5 5 5 5 5 5 5 5 5 5 5 5 5 5 5 5 5 5 5 5 5 5 5 5 5 5 5 5 5 5 5 5 5 5 5 5 5 5 5 5 5 5 5 5 5 5 5 5 5 5 5 5 5 5 5 5 5 5 5 5 5 5 5 5 5 5 5 5 5 5 5 5 5 5 5 5 5 5 5 5 5 5 5 5 5 5 5 5 5 5 5 5 5 5 5 5 5 5 5 5 5 5 5 5 5 5 5 5 5 5 5 5 5 5 5 5 5 5 5 5 5 5 5 5 5 </DataArray>
</Cells>
<CellData  Scalars="f_44116"> 
<DataArray  type="Float64"  Name="f_44116"  format="ascii">4.2179070700464118e-10   4.9521470056736384e-10   1.0321070054964437e-09   1.8908795548062497e-09   1.4991464076710778e-09   3.2845715217527598e-09   1.5826929695600014e-09   3.9885273691276592e-09   1.1982944536810906e-09   3.5895732549122938e-09   6.6231876859217432e-10   2.2803645378226498e-09   1.1552802800428449e-10   9.2956166280504721e-10   1.0042714547729301e-10   2.2490087203079971e-10   3.0703614561116552e-09   2.3570652507646079e-09   4.3295221859143876e-09   4.1410323675425421e-09   4.4692695505720319e-09   3.6883609817865795e-09   3.7766652076101655e-09   2.7507799626894356e-09   2.5572413404692343e-09   1.6344386677859372e-09   1.5993122423143262e-09   9.8520752888200720e-10   1.4479502302760223e-09   1.2122609016461252e-09   1.8200803197432954e-09   2.5748449868037922e-09   6.0186354895703862e-09   4.5612127158649323e-09   5.5136921048463040e-09   5.9256372616589988e-09   3.6602477973375883e-09   3.7269408324836269e-09   1.6588490004288845e-09   1.8287374994111957e-09   5.7663432869742913e-10   7.0937369911621784e-10   1.0701169615439332e-09   1.1096674791515260e-09   3.1018048094132195e-09   2.7700271316958551e-09   3.8959634069372384e-09   5.1767339577996161e-09   7.9370037250928197e-09   5.9607998303003813e-09   5.9789300928883628e-09   6.4798911518949087e-09   3.1383204548025586e-09   3.0457191458542033e-09   7.9206269827131710e-10   7.8231612161204724e-10   3.1437368259519534e-10   3.0165231679378036e-10   1.9242027717231853e-09   2.0049804330617142e-09   5.2376424872606341e-09   4.8386930927549005e-09   5.6928156549299750e-09   7.6982199688859300e-09   7.7050996559178119e-09   5.6922917005981005e-09   4.8379646192797118e-09   5.2465099491408272e-09   2.0046457715940259e-09   1.9227367830965635e-09   3.0163111178271459e-10   3.1435085343733453e-10   7.8219575066292636e-10   7.9194121050686016e-10   3.0474821506121531e-09   3.1380728194074172e-09   6.4698845906391401e-09   5.9784625024936865e-09   5.9620091793384018e-09   7.9295038396269073e-09   5.1839503656633632e-09   3.8953005683051986e-09   2.7693597302146173e-09   3.1063029452371532e-09   1.1095122161845587e-09   1.0698684103547868e-09   7.0950400378272229e-10   5.7781146542372689e-10   1.8285319573647446e-09   1.6605980731693778e-09   3.7282419660961859e-09   3.6615317827599534e-09   5.9157008667232482e-09   5.5108425751418031e-09   4.5632618621633104e-09   6.0138733096633161e-09   2.5706981978201074e-09   1.8163205225802154e-09   1.2127757314674447e-09   1.4478608111696275e-09   9.8505848309601726e-10   1.5929629830705495e-09   1.6355965083168260e-09   2.5477933430063370e-09   2.7512188379937170e-09   3.7666784022530960e-09   3.6864623177702516e-09   4.4597127606289253e-09   4.1315568380942616e-09   4.3198442367318335e-09   2.3603727016706945e-09   3.0705821020299850e-09   2.2772506000000092e-10   1.0394882469031118e-10   9.2742669737747759e-10   1.1298224548859827e-10   2.2733002856572582e-09   6.6419459981087340e-10   3.5806792587796887e-09   1.1978858656259559e-09   3.9792146137616932e-09   1.5830406007138992e-09   3.2775857918171356e-09   1.4996053590367326e-09   1.8886808579003387e-09   1.0332202489914701e-09   4.9689531997273442e-10   4.2339220283696749e-10   </DataArray> 
</CellData> 
</Piece>
</UnstructuredGrid>
</VTKFile>