<?xml version="1.0"?>
<VTKFile type="UnstructuredGrid"  version="0.1"  >
<UnstructuredGrid>
<Piece  NumberOfPoints="25" NumberOfCells="32">
<Points>
<DataArray  type="Float64"  NumberOfComponents="3"  format="ascii">0 0 0  0.25 0 0  0.5 0 0  0.75 0 0  1 0 0  0 0.25 0  0.25 0.25 0  0.5 0.25 0  0.75 0.25 0  1 0.25 0  0 0.5 0  0.25 0.5 0  0.5 0.5 0  0.75 0.5 0  1 0.5 0  0 0.75 0  0.25 0.75 0  0.5 0.75 0  0.75 0.75 0  1 0.75 0  0 1 0  0.25 1 0  0.5 1 0  0.75 1 0  1 1 0  </DataArray>
</Points>
<Cells>
<DataArray  type="UInt32"  Name="connectivity"  format="ascii">0 1 6  0 5 6  1 2 7  1 6 7  2 3 8  2 7 8  3 4 9  3 8 9  5 6 11  5 10 11  6 7 12  6 11 12  7 8 13  7 12 13  8 9 14  8 13 14  10 11 16  10 15 16  11 12 17  11 16 17  12 13 18  12 17 18  13 14 19  13 18 19  15 16 21  15 20 21  16 17 22  16 21 22  17 18 23  17 22 23  18 19 24  18 23 24  </DataArray>
<DataArray  type="UInt32"  Name="offsets"  format="ascii">3 6 9 12 15 18 21 24 27 30 33 36 39 42 45 48 51 54 57 60 63 66 69 72 75 78 81 84 87 90 93 96 </DataArray>
<DataArray  type="UInt8"  Name="types"  format="ascii">5 5 5 5 5 5 5 5 5 5 5 5 5 5 5 5 5 5 5 5 5 5 5 5 5 5 5 5 5 5 5 5 </DataArray>
</Cells>
<CellData  Scalars="f_86"> 
<DataArray  type="Float64"  Name="f_86"  format="ascii">6.5758676264256217e-08   5.8760165466046806e-08   1.1709200171179109e-08   2.9944225579116164e-08   5.9967050950888934e-08   5.3680428973292121e-08   1.1558775765231767e-07   8.8217159361849507e-08   2.3272056968731087e-08   6.4370312698204196e-09   6.7313832218838310e-08   6.3464081218930880e-08   7.7173499959908898e-08   8.7171183466969471e-08   3.1644945635712635e-08   3.2600361354745769e-08   5.3927932021817759e-08   7.3271249148858693e-08   8.2193647673277431e-08   7.5900337768484541e-08   5.2329347280437309e-08   4.6963073469799004e-08   2.2756404342722195e-08   4.7580618989991818e-08   1.0278126099153813e-07   1.2879335116694901e-07   2.9068936190014375e-08   4.1808059915454663e-08   3.8783788374954914e-08   1.1969790527097482e-08   1.1310045251954484e-07   1.0457558906134638e-07   </DataArray> 
</CellData> 
</Piece>
</UnstructuredGrid>
</VTKFile>