<?xml version="1.0"?>
<VTKFile type="UnstructuredGrid"  version="0.1"  >
<UnstructuredGrid>
<Piece  NumberOfPoints="25" NumberOfCells="32">
<Points>
<DataArray  type="Float64"  NumberOfComponents="3"  format="ascii">0 0 0  0.25 0 0  0.5 0 0  0.75 0 0  1 0 0  0 0.25 0  0.25 0.25 0  0.5 0.25 0  0.75 0.25 0  1 0.25 0  0 0.5 0  0.25 0.5 0  0.5 0.5 0  0.75 0.5 0  1 0.5 0  0 0.75 0  0.25 0.75 0  0.5 0.75 0  0.75 0.75 0  1 0.75 0  0 1 0  0.25 1 0  0.5 1 0  0.75 1 0  1 1 0  </DataArray>
</Points>
<Cells>
<DataArray  type="UInt32"  Name="connectivity"  format="ascii">0 1 6  0 5 6  1 2 7  1 6 7  2 3 8  2 7 8  3 4 9  3 8 9  5 6 11  5 10 11  6 7 12  6 11 12  7 8 13  7 12 13  8 9 14  8 13 14  10 11 16  10 15 16  11 12 17  11 16 17  12 13 18  12 17 18  13 14 19  13 18 19  15 16 21  15 20 21  16 17 22  16 21 22  17 18 23  17 22 23  18 19 24  18 23 24  </DataArray>
<DataArray  type="UInt32"  Name="offsets"  format="ascii">3 6 9 12 15 18 21 24 27 30 33 36 39 42 45 48 51 54 57 60 63 66 69 72 75 78 81 84 87 90 93 96 </DataArray>
<DataArray  type="UInt8"  Name="types"  format="ascii">5 5 5 5 5 5 5 5 5 5 5 5 5 5 5 5 5 5 5 5 5 5 5 5 5 5 5 5 5 5 5 5 </DataArray>
</Cells>
<CellData  Scalars="f_89"> 
<DataArray  type="Float64"  Name="f_89"  format="ascii">1.7281865229421598e-07   2.0132529413941031e-07   2.0706289351650107e-07   4.5498268025081497e-07   3.9766968235013637e-08   3.0297582983129919e-07   4.8867374495494419e-08   1.0488748562554565e-07   9.3489373673379468e-07   7.1891581196054995e-07   4.8654435744760248e-07   4.4901965367455432e-07   2.5015618066230086e-07   1.7835310096413925e-07   6.4849849980897223e-07   9.2023474065266071e-07   9.1522451341501864e-07   6.4423535218547568e-07   1.7934874091129150e-07   2.5056136016773571e-07   4.4400624436331879e-07   4.8128557971537030e-07   7.2178352772391510e-07   9.3258621075166533e-07   1.0799156934861204e-07   5.2561343715077374e-08   3.0151273779938023e-07   3.7659772867545420e-08   4.5162356125508738e-07   2.0904620298759608e-07   2.0294959002457708e-07   1.7441639778639061e-07   </DataArray> 
</CellData> 
</Piece>
</UnstructuredGrid>
</VTKFile>