<?xml version="1.0"?>
<VTKFile type="UnstructuredGrid"  version="0.1"  >
<UnstructuredGrid>
<Piece  NumberOfPoints="1089" NumberOfCells="2048">
<Points>
<DataArray  type="Float64"  NumberOfComponents="3"  format="ascii">0 0 0  0.03125 0 0  0.0625 0 0  0.09375 0 0  0.125 0 0  0.15625 0 0  0.1875 0 0  0.21875 0 0  0.25 0 0  0.28125 0 0  0.3125 0 0  0.34375 0 0  0.375 0 0  0.40625 0 0  0.4375 0 0  0.46875 0 0  0.5 0 0  0.53125 0 0  0.5625 0 0  0.59375 0 0  0.625 0 0  0.65625 0 0  0.6875 0 0  0.71875 0 0  0.75 0 0  0.78125 0 0  0.8125 0 0  0.84375 0 0  0.875 0 0  0.90625 0 0  0.9375 0 0  0.96875 0 0  1 0 0  0 0.03125 0  0.03125 0.03125 0  0.0625 0.03125 0  0.09375 0.03125 0  0.125 0.03125 0  0.15625 0.03125 0  0.1875 0.03125 0  0.21875 0.03125 0  0.25 0.03125 0  0.28125 0.03125 0  0.3125 0.03125 0  0.34375 0.03125 0  0.375 0.03125 0  0.40625 0.03125 0  0.4375 0.03125 0  0.46875 0.03125 0  0.5 0.03125 0  0.53125 0.03125 0  0.5625 0.03125 0  0.59375 0.03125 0  0.625 0.03125 0  0.65625 0.03125 0  0.6875 0.03125 0  0.71875 0.03125 0  0.75 0.03125 0  0.78125 0.03125 0  0.8125 0.03125 0  0.84375 0.03125 0  0.875 0.03125 0  0.90625 0.03125 0  0.9375 0.03125 0  0.96875 0.03125 0  1 0.03125 0  0 0.0625 0  0.03125 0.0625 0  0.0625 0.0625 0  0.09375 0.0625 0  0.125 0.0625 0  0.15625 0.0625 0  0.1875 0.0625 0  0.21875 0.0625 0  0.25 0.0625 0  0.28125 0.0625 0  0.3125 0.0625 0  0.34375 0.0625 0  0.375 0.0625 0  0.40625 0.0625 0  0.4375 0.0625 0  0.46875 0.0625 0  0.5 0.0625 0  0.53125 0.0625 0  0.5625 0.0625 0  0.59375 0.0625 0  0.625 0.0625 0  0.65625 0.0625 0  0.6875 0.0625 0  0.71875 0.0625 0  0.75 0.0625 0  0.78125 0.0625 0  0.8125 0.0625 0  0.84375 0.0625 0  0.875 0.0625 0  0.90625 0.0625 0  0.9375 0.0625 0  0.96875 0.0625 0  1 0.0625 0  0 0.09375 0  0.03125 0.09375 0  0.0625 0.09375 0  0.09375 0.09375 0  0.125 0.09375 0  0.15625 0.09375 0  0.1875 0.09375 0  0.21875 0.09375 0  0.25 0.09375 0  0.28125 0.09375 0  0.3125 0.09375 0  0.34375 0.09375 0  0.375 0.09375 0  0.40625 0.09375 0  0.4375 0.09375 0  0.46875 0.09375 0  0.5 0.09375 0  0.53125 0.09375 0  0.5625 0.09375 0  0.59375 0.09375 0  0.625 0.09375 0  0.65625 0.09375 0  0.6875 0.09375 0  0.71875 0.09375 0  0.75 0.09375 0  0.78125 0.09375 0  0.8125 0.09375 0  0.84375 0.09375 0  0.875 0.09375 0  0.90625 0.09375 0  0.9375 0.09375 0  0.96875 0.09375 0  1 0.09375 0  0 0.125 0  0.03125 0.125 0  0.0625 0.125 0  0.09375 0.125 0  0.125 0.125 0  0.15625 0.125 0  0.1875 0.125 0  0.21875 0.125 0  0.25 0.125 0  0.28125 0.125 0  0.3125 0.125 0  0.34375 0.125 0  0.375 0.125 0  0.40625 0.125 0  0.4375 0.125 0  0.46875 0.125 0  0.5 0.125 0  0.53125 0.125 0  0.5625 0.125 0  0.59375 0.125 0  0.625 0.125 0  0.65625 0.125 0  0.6875 0.125 0  0.71875 0.125 0  0.75 0.125 0  0.78125 0.125 0  0.8125 0.125 0  0.84375 0.125 0  0.875 0.125 0  0.90625 0.125 0  0.9375 0.125 0  0.96875 0.125 0  1 0.125 0  0 0.15625 0  0.03125 0.15625 0  0.0625 0.15625 0  0.09375 0.15625 0  0.125 0.15625 0  0.15625 0.15625 0  0.1875 0.15625 0  0.21875 0.15625 0  0.25 0.15625 0  0.28125 0.15625 0  0.3125 0.15625 0  0.34375 0.15625 0  0.375 0.15625 0  0.40625 0.15625 0  0.4375 0.15625 0  0.46875 0.15625 0  0.5 0.15625 0  0.53125 0.15625 0  0.5625 0.15625 0  0.59375 0.15625 0  0.625 0.15625 0  0.65625 0.15625 0  0.6875 0.15625 0  0.71875 0.15625 0  0.75 0.15625 0  0.78125 0.15625 0  0.8125 0.15625 0  0.84375 0.15625 0  0.875 0.15625 0  0.90625 0.15625 0  0.9375 0.15625 0  0.96875 0.15625 0  1 0.15625 0  0 0.1875 0  0.03125 0.1875 0  0.0625 0.1875 0  0.09375 0.1875 0  0.125 0.1875 0  0.15625 0.1875 0  0.1875 0.1875 0  0.21875 0.1875 0  0.25 0.1875 0  0.28125 0.1875 0  0.3125 0.1875 0  0.34375 0.1875 0  0.375 0.1875 0  0.40625 0.1875 0  0.4375 0.1875 0  0.46875 0.1875 0  0.5 0.1875 0  0.53125 0.1875 0  0.5625 0.1875 0  0.59375 0.1875 0  0.625 0.1875 0  0.65625 0.1875 0  0.6875 0.1875 0  0.71875 0.1875 0  0.75 0.1875 0  0.78125 0.1875 0  0.8125 0.1875 0  0.84375 0.1875 0  0.875 0.1875 0  0.90625 0.1875 0  0.9375 0.1875 0  0.96875 0.1875 0  1 0.1875 0  0 0.21875 0  0.03125 0.21875 0  0.0625 0.21875 0  0.09375 0.21875 0  0.125 0.21875 0  0.15625 0.21875 0  0.1875 0.21875 0  0.21875 0.21875 0  0.25 0.21875 0  0.28125 0.21875 0  0.3125 0.21875 0  0.34375 0.21875 0  0.375 0.21875 0  0.40625 0.21875 0  0.4375 0.21875 0  0.46875 0.21875 0  0.5 0.21875 0  0.53125 0.21875 0  0.5625 0.21875 0  0.59375 0.21875 0  0.625 0.21875 0  0.65625 0.21875 0  0.6875 0.21875 0  0.71875 0.21875 0  0.75 0.21875 0  0.78125 0.21875 0  0.8125 0.21875 0  0.84375 0.21875 0  0.875 0.21875 0  0.90625 0.21875 0  0.9375 0.21875 0  0.96875 0.21875 0  1 0.21875 0  0 0.25 0  0.03125 0.25 0  0.0625 0.25 0  0.09375 0.25 0  0.125 0.25 0  0.15625 0.25 0  0.1875 0.25 0  0.21875 0.25 0  0.25 0.25 0  0.28125 0.25 0  0.3125 0.25 0  0.34375 0.25 0  0.375 0.25 0  0.40625 0.25 0  0.4375 0.25 0  0.46875 0.25 0  0.5 0.25 0  0.53125 0.25 0  0.5625 0.25 0  0.59375 0.25 0  0.625 0.25 0  0.65625 0.25 0  0.6875 0.25 0  0.71875 0.25 0  0.75 0.25 0  0.78125 0.25 0  0.8125 0.25 0  0.84375 0.25 0  0.875 0.25 0  0.90625 0.25 0  0.9375 0.25 0  0.96875 0.25 0  1 0.25 0  0 0.28125 0  0.03125 0.28125 0  0.0625 0.28125 0  0.09375 0.28125 0  0.125 0.28125 0  0.15625 0.28125 0  0.1875 0.28125 0  0.21875 0.28125 0  0.25 0.28125 0  0.28125 0.28125 0  0.3125 0.28125 0  0.34375 0.28125 0  0.375 0.28125 0  0.40625 0.28125 0  0.4375 0.28125 0  0.46875 0.28125 0  0.5 0.28125 0  0.53125 0.28125 0  0.5625 0.28125 0  0.59375 0.28125 0  0.625 0.28125 0  0.65625 0.28125 0  0.6875 0.28125 0  0.71875 0.28125 0  0.75 0.28125 0  0.78125 0.28125 0  0.8125 0.28125 0  0.84375 0.28125 0  0.875 0.28125 0  0.90625 0.28125 0  0.9375 0.28125 0  0.96875 0.28125 0  1 0.28125 0  0 0.3125 0  0.03125 0.3125 0  0.0625 0.3125 0  0.09375 0.3125 0  0.125 0.3125 0  0.15625 0.3125 0  0.1875 0.3125 0  0.21875 0.3125 0  0.25 0.3125 0  0.28125 0.3125 0  0.3125 0.3125 0  0.34375 0.3125 0  0.375 0.3125 0  0.40625 0.3125 0  0.4375 0.3125 0  0.46875 0.3125 0  0.5 0.3125 0  0.53125 0.3125 0  0.5625 0.3125 0  0.59375 0.3125 0  0.625 0.3125 0  0.65625 0.3125 0  0.6875 0.3125 0  0.71875 0.3125 0  0.75 0.3125 0  0.78125 0.3125 0  0.8125 0.3125 0  0.84375 0.3125 0  0.875 0.3125 0  0.90625 0.3125 0  0.9375 0.3125 0  0.96875 0.3125 0  1 0.3125 0  0 0.34375 0  0.03125 0.34375 0  0.0625 0.34375 0  0.09375 0.34375 0  0.125 0.34375 0  0.15625 0.34375 0  0.1875 0.34375 0  0.21875 0.34375 0  0.25 0.34375 0  0.28125 0.34375 0  0.3125 0.34375 0  0.34375 0.34375 0  0.375 0.34375 0  0.40625 0.34375 0  0.4375 0.34375 0  0.46875 0.34375 0  0.5 0.34375 0  0.53125 0.34375 0  0.5625 0.34375 0  0.59375 0.34375 0  0.625 0.34375 0  0.65625 0.34375 0  0.6875 0.34375 0  0.71875 0.34375 0  0.75 0.34375 0  0.78125 0.34375 0  0.8125 0.34375 0  0.84375 0.34375 0  0.875 0.34375 0  0.90625 0.34375 0  0.9375 0.34375 0  0.96875 0.34375 0  1 0.34375 0  0 0.375 0  0.03125 0.375 0  0.0625 0.375 0  0.09375 0.375 0  0.125 0.375 0  0.15625 0.375 0  0.1875 0.375 0  0.21875 0.375 0  0.25 0.375 0  0.28125 0.375 0  0.3125 0.375 0  0.34375 0.375 0  0.375 0.375 0  0.40625 0.375 0  0.4375 0.375 0  0.46875 0.375 0  0.5 0.375 0  0.53125 0.375 0  0.5625 0.375 0  0.59375 0.375 0  0.625 0.375 0  0.65625 0.375 0  0.6875 0.375 0  0.71875 0.375 0  0.75 0.375 0  0.78125 0.375 0  0.8125 0.375 0  0.84375 0.375 0  0.875 0.375 0  0.90625 0.375 0  0.9375 0.375 0  0.96875 0.375 0  1 0.375 0  0 0.40625 0  0.03125 0.40625 0  0.0625 0.40625 0  0.09375 0.40625 0  0.125 0.40625 0  0.15625 0.40625 0  0.1875 0.40625 0  0.21875 0.40625 0  0.25 0.40625 0  0.28125 0.40625 0  0.3125 0.40625 0  0.34375 0.40625 0  0.375 0.40625 0  0.40625 0.40625 0  0.4375 0.40625 0  0.46875 0.40625 0  0.5 0.40625 0  0.53125 0.40625 0  0.5625 0.40625 0  0.59375 0.40625 0  0.625 0.40625 0  0.65625 0.40625 0  0.6875 0.40625 0  0.71875 0.40625 0  0.75 0.40625 0  0.78125 0.40625 0  0.8125 0.40625 0  0.84375 0.40625 0  0.875 0.40625 0  0.90625 0.40625 0  0.9375 0.40625 0  0.96875 0.40625 0  1 0.40625 0  0 0.4375 0  0.03125 0.4375 0  0.0625 0.4375 0  0.09375 0.4375 0  0.125 0.4375 0  0.15625 0.4375 0  0.1875 0.4375 0  0.21875 0.4375 0  0.25 0.4375 0  0.28125 0.4375 0  0.3125 0.4375 0  0.34375 0.4375 0  0.375 0.4375 0  0.40625 0.4375 0  0.4375 0.4375 0  0.46875 0.4375 0  0.5 0.4375 0  0.53125 0.4375 0  0.5625 0.4375 0  0.59375 0.4375 0  0.625 0.4375 0  0.65625 0.4375 0  0.6875 0.4375 0  0.71875 0.4375 0  0.75 0.4375 0  0.78125 0.4375 0  0.8125 0.4375 0  0.84375 0.4375 0  0.875 0.4375 0  0.90625 0.4375 0  0.9375 0.4375 0  0.96875 0.4375 0  1 0.4375 0  0 0.46875 0  0.03125 0.46875 0  0.0625 0.46875 0  0.09375 0.46875 0  0.125 0.46875 0  0.15625 0.46875 0  0.1875 0.46875 0  0.21875 0.46875 0  0.25 0.46875 0  0.28125 0.46875 0  0.3125 0.46875 0  0.34375 0.46875 0  0.375 0.46875 0  0.40625 0.46875 0  0.4375 0.46875 0  0.46875 0.46875 0  0.5 0.46875 0  0.53125 0.46875 0  0.5625 0.46875 0  0.59375 0.46875 0  0.625 0.46875 0  0.65625 0.46875 0  0.6875 0.46875 0  0.71875 0.46875 0  0.75 0.46875 0  0.78125 0.46875 0  0.8125 0.46875 0  0.84375 0.46875 0  0.875 0.46875 0  0.90625 0.46875 0  0.9375 0.46875 0  0.96875 0.46875 0  1 0.46875 0  0 0.5 0  0.03125 0.5 0  0.0625 0.5 0  0.09375 0.5 0  0.125 0.5 0  0.15625 0.5 0  0.1875 0.5 0  0.21875 0.5 0  0.25 0.5 0  0.28125 0.5 0  0.3125 0.5 0  0.34375 0.5 0  0.375 0.5 0  0.40625 0.5 0  0.4375 0.5 0  0.46875 0.5 0  0.5 0.5 0  0.53125 0.5 0  0.5625 0.5 0  0.59375 0.5 0  0.625 0.5 0  0.65625 0.5 0  0.6875 0.5 0  0.71875 0.5 0  0.75 0.5 0  0.78125 0.5 0  0.8125 0.5 0  0.84375 0.5 0  0.875 0.5 0  0.90625 0.5 0  0.9375 0.5 0  0.96875 0.5 0  1 0.5 0  0 0.53125 0  0.03125 0.53125 0  0.0625 0.53125 0  0.09375 0.53125 0  0.125 0.53125 0  0.15625 0.53125 0  0.1875 0.53125 0  0.21875 0.53125 0  0.25 0.53125 0  0.28125 0.53125 0  0.3125 0.53125 0  0.34375 0.53125 0  0.375 0.53125 0  0.40625 0.53125 0  0.4375 0.53125 0  0.46875 0.53125 0  0.5 0.53125 0  0.53125 0.53125 0  0.5625 0.53125 0  0.59375 0.53125 0  0.625 0.53125 0  0.65625 0.53125 0  0.6875 0.53125 0  0.71875 0.53125 0  0.75 0.53125 0  0.78125 0.531
[...]
<CellData  Scalars="f_176236"> 
<DataArray  type="Float64"  Name="f_176236"  format="ascii">6.3879806762875849e-07   6.3939711931714565e-07   1.4813006754182766e-06   1.9672718414665233e-06   2.7041119775615877e-06   4.0364350360968816e-06   4.2603055387405178e-06   6.8220870701127911e-06   6.0901167360658959e-06   1.0217426348668701e-05   8.1232402629398654e-06   1.4092098679098099e-05   1.0281538642282716e-05   1.8297253383717475e-05   1.2482051459979622e-05   2.2671290877279674e-05   1.4640188871803902e-05   2.7046091148607296e-05   1.6672986583568085e-05   3.1253487597776941e-05   1.8502297314910501e-05   3.5131739108144235e-05   2.0057796240606047e-05   3.8531752537199982e-05   2.1279685061683204e-05   4.1322817092910946e-05   2.2120990925823393e-05   4.3397630668425969e-05   2.2549371974018103e-05   4.4676425326722251e-05   2.2548360222531574e-05   4.5110033678544349e-05   2.2117994094339403e-05   4.4681778535981832e-05   2.1274816343429446e-05   4.3408113396499115e-05   2.0051237483072119e-05   4.1337989263856563e-05   1.8494289193325323e-05   3.8550972214737849e-05   1.6663815616292582e-05   3.5154184090552246e-05   1.4630172046246469e-05   3.1278183896182056e-05   1.2471519462509841e-05   2.7071948183155458e-05   1.0270818911692016e-05   2.2697143330620704e-05   8.1126413317057658e-06   1.8321909879806437e-05   6.0799155964436168e-06   1.4114397894058143e-05   4.2507400991343459e-06   1.0236301989335863e-05   2.6953810733902670e-06   6.8366448528744814e-06   1.4735743729264958e-06   4.0460487581606550e-06   6.3223759376582933e-07   1.9717162024965021e-06   2.0368987157967759e-07   6.9331420353151821e-07   1.5107159573232944e-07   2.5992349545297341e-07   3.1916058939762505e-06   2.7078730586916518e-06   5.2392536348356388e-06   5.2406606172587171e-06   7.9807957069142156e-06   7.9826669282094519e-06   1.1311174827085221e-05   1.1313468978757021e-05   1.5102511760246100e-05   1.5105195901337902e-05   1.9209122649414325e-05   1.9212165524644038e-05   2.3473158927724649e-05   2.3476523645010562e-05   2.7730696237530472e-05   2.7734335327403888e-05   3.1818048335271291e-05   3.1821901595335756e-05   3.5578067022955278e-05   3.5582061584495240e-05   3.8866187671221083e-05   3.8870239720642925e-05   4.1555988903183778e-05   4.1560006599983074e-05   4.3544053357125821e-05   4.3547940576810151e-05   4.4753943142390720e-05   4.4757603716537020e-05   4.5139137530580792e-05   4.5142479700818235e-05   4.4684820224681450e-05   4.4687761061266146e-05   4.3408447703522260e-05   4.3410917274561259e-05   4.1359076921308978e-05   4.1361022036574564e-05   3.8615478273502768e-05   3.8616865663273632e-05   3.5283106383836345e-05   3.5283925204423322e-05   3.1490045138157736e-05   3.1490308723389286e-05   2.7382082802008641e-05   2.7381829592343891e-05   2.3117106506201674e-05   2.3116400084982539e-05   1.8859031579411656e-05   1.8857959716979050e-05   1.4771499158353585e-05   1.4770171694020435e-05   1.1011584526229814e-05   1.1010129784173830e-05   7.7237583884966102e-06   7.7223175812029498e-06   5.0343338125602857e-06   5.0330524600376202e-06   3.0466132236402091e-06   3.0456278643442240e-06   1.8369233728480200e-06   1.8363404640254988e-06   1.4516922087056196e-06   1.4515534463184993e-06   1.4219896475846291e-06   1.9058991486375631e-06   7.6645686287600448e-06   6.3355042968963439e-06   1.0385259563709054e-05   1.0386673027720081e-05   1.3648573795838011e-05   1.3650350825301904e-05   1.7329335354291736e-05   1.7331458094722739e-05   2.1286142921343548e-05   2.1288581200720421e-05   2.5366901098659754e-05   2.5369614932172966e-05   2.9414709373439872e-05   2.9417648479649204e-05   3.3273915979532489e-05   3.3277019540543446e-05   3.6796114239518796e-05   3.6799311541835594e-05   3.9845854896706020e-05   3.9849067073641255e-05   4.2305856849474419e-05   4.2308999610634110e-05   4.4081517195131761e-05   4.4084504263354211e-05   4.5104548002013851e-05   4.5107294958475193e-05   4.5335600574016773e-05   4.5338028821737503e-05   4.4765776722233063e-05   4.4767817328005074e-05   4.3416969230409126e-05   4.3418566442709161e-05   4.1341018607233182e-05   4.1342132890877378e-05   3.8617718641094698e-05   3.8618329115170360e-05   3.5351747454257513e-05   3.5351853655852326e-05   3.1668642011126630e-05   3.1668264935476005e-05   2.7709970765322113e-05   2.7709153156749363e-05   2.3627889945312267e-05   2.3626695813433554e-05   1.9579292673594775e-05   1.9577806001994082e-05   1.5719775795303693e-05   1.5718098371793144e-05   1.2197656341829805e-05   1.2195904577092055e-05   9.1482677012904423e-06   9.1465682049954451e-06   6.6887548543407734e-06   6.6872384026295262e-06   4.9135688422048711e-06   4.9123621980653131e-06   3.8908336152101147e-06   3.8900484550554927e-06   3.6597242743459008e-06   3.6594422973788169e-06   4.2289536370659736e-06   4.2292078032965129e-06   4.2467608519135616e-06   5.5771658533239294e-06   1.3940900078615598e-05   1.1383459021106758e-05   1.7206797964684076e-05   1.7208052108820678e-05   2.0820459646511547e-05   2.0821973158085311e-05   2.4643159554667785e-05   2.4644938444739422e-05   2.8527991025182416e-05   2.8530012656987620e-05   3.2325585592396622e-05   3.2327809317478273e-05   3.5889894471928344e-05   3.5892265252945701e-05   3.9083824405228022e-05   3.9086275745750694e-05   4.1784519974857935e-05   4.1786977054916651e-05   4.3888093189204289e-05   4.3890476337455795e-05   4.5313620458366649e-05   4.5315848906068449e-05   4.6006254506740545e-05   4.6008250273038578e-05   4.5939332409971004e-05   4.5941024128717293e-05   4.5115399316483367e-05   4.5116725805285007e-05   4.3566108904661130e-05   4.3567022307296335e-05   4.1351004677603876e-05   4.1351473051145969e-05   3.8555229105520470e-05   3.8555238357770993e-05   3.5286248742152717e-05   3.5285803877530316e-05   3.1669721197046281e-05   3.1668846852382384e-05   2.7844662779847375e-05   2.7843403064191626e-05   2.3958102477285592e-05   2.3956520141423594e-05   2.0159427660149638e-05   2.0157602620190121e-05   1.6594638765203137e-05   1.6592665995159327e-05   1.3400733714233576e-05   1.3398720491032995e-05   1.0700437865919664e-05   1.0698500313137138e-05   8.5974820175351111e-06   8.5957408481660545e-06   7.1726098799877485e-06   7.1711852000548892e-06   6.4804682907280138e-06   6.4794733121918726e-06   6.5474991472148778e-06   6.5470327307068525e-06   7.3709123907233122e-06   7.3710508105914904e-06   8.9187738346760354e-06   8.9195645617112135e-06   8.5724495180189843e-06   1.1132657452452185e-05   2.1779746476006028e-05   1.7657970628374821e-05   2.5441932877102378e-05   2.5442859429354344e-05   2.9220935572451028e-05   2.9222033803981016e-05   3.2971582623351928e-05   3.2972879827838821e-05   3.6549691510473915e-05   3.6551173835487193e-05   3.9817653461968972e-05   3.9819282345683081e-05   4.2649755403379163e-05   4.2651475042303124e-05   4.4937032040780280e-05   4.4938774741543044e-05   4.6591465888612934e-05   4.6593156959444878e-05   4.7549376880530705e-05   4.7550939356101344e-05   4.7773873132297283e-05   4.7775232279158509e-05   4.7256269804537378e-05   4.7257357283995858e-05   4.6016422310190549e-05   4.6017179870704733e-05   4.4101961610890779e-05   4.4102344190730800e-05   4.1586461382366989e-05   4.1586439532706771e-05   3.8566607738348669e-05   3.8566169316661409e-05   3.5158480443097887e-05   3.5157631555719223e-05   3.1493088578038674e-05   3.1491853800961308e-05   2.7711332233095702e-05   2.7709754153706628e-05   2.3958583788093953e-05   2.3956721943732666e-05   2.0379096948212468e-05   2.0377026234648986e-05   1.7110458304569538e-05   1.7108266930949335e-05   1.4278294555983482e-05   1.4276081608291834e-05   1.1991438716929997e-05   1.1989311372306228e-05   1.0337740999440633e-05   1.0335811414172174e-05   9.3806852728318488e-06   9.3790671559345231e-06   9.1569409825253537e-06   9.1557458807850020e-06   9.6749442925990306e-06   9.6742776865024062e-06   1.0914562206103443e-05   1.0914519762889413e-05   1.2827850600123956e-05   1.2828515732328947e-05   1.5340872445578654e-05   1.5342318647330594e-05   1.4232823548065421e-05   1.8358804918268956e-05   3.0879939757038389e-05   2.4917948855021815e-05   3.4774207989893743e-05   3.4774646870222165e-05   3.8527129386605046e-05   3.8527681458141780e-05   4.1994454508742618e-05   4.1995162523565156e-05   4.5042851941191299e-05   4.5043710181655673e-05   4.7555052991902561e-05   4.7556025767251875e-05   4.9434382090705539e-05   4.9435414332096658e-05   5.0608489148467398e-05   5.0609513905156564e-05   5.1032140572421971e-05   5.1033085274961433e-05   5.0688963392953276e-05   5.0689755419558737e-05   4.9592076966549449e-05   4.9592648569313810e-05   4.7783589047348889e-05   4.7783881563202903e-05   4.5332976331553926e-05   4.5332943603685449e-05   4.2334412231000534e-05   4.2334023182550177e-05   3.8903144927918479e-05   3.8902385274874139e-05   3.5171065124901205e-05   3.5169938247253668e-05   3.1281633942750224e-05   3.1280160970166862e-05   2.7384365908965251e-05   2.7382585111893984e-05   2.3629079025071677e-05   2.3627044615744685e-05   2.0160132788985052e-05   2.0157913258891474e-05   1.7110875500682348e-05   1.7108551613159039e-05   1.4598514116152746e-05   1.4596176672999137e-05   1.2719603688659349e-05   1.2717351170415835e-05   1.1546329631438641e-05   1.1544265798066315e-05   1.1123725580592259e-05   1.1121957106925841e-05   1.1467933666278426e-05   1.1466567893561964e-05   1.2565573884867851e-05   1.2564716810407258e-05   1.4374246471248553e-05   1.4374001222154876e-05   1.6824147240998081e-05   1.6824613595606809e-05   1.9820732337616517e-05   1.9822008615868877e-05   2.3248327575495577e-05   2.3250517714223297e-05   2.1010290837398998e-05   2.6977772215437641e-05   4.0891682461884346e-05   3.2884321334039298e-05   4.4844876831829779e-05   4.4844687023989232e-05   4.8381268404588495e-05   4.8381169100501766e-05   5.1364871763240979e-05   5.1364914217833955e-05   5.3680919940280489e-05   5.3681103951997661e-05   5.5240282940551650e-05   5.5240575004103528e-05   5.5982907615201047e-05   5.5983253451870761e-05   5.5880137896387933e-05   5.5880471666486372e-05   5.4935824193198961e-05   5.4936075857145168e-05   5.3186179748568029e-05   5.3186281201937429e-05   5.0698390443011684e-05   5.0698280608632991e-05   4.7568032345357095e-05   4.7567661233835278e-05   4.3915396914228781e-05   4.3914728649994996e-05   3.9880865551408464e-05   3.9879880370852975e-05   3.5619511566538966e-05   3.5618206846128682e-05   3.1295137183467322e-05   3.1293527581081795e-05   2.7073974819352813e-05   2.7072091654869960e-05   2.3118294682788829e-05   2.3116184702004308e-05   1.9580164278697998e-05   1.9577887960322671e-05   1.6595599524456954e-05   1.6593229095500497e-05   1.4279332116520415e-05   1.4276949431593080e-05   1.2720394098850437e-05   1.2718088527484645e-05   1.1978689193659886e-05   1.1976555639400367e-05   1.2082682554588828e-05   1.2080819713611949e-05   1.3028297640618240e-05   1.3026806596170355e-05   1.4779062520253733e-05   1.4778045782324412e-05   1.7267499869845687e-05   1.7267061019059179e-05   2.0397707021051441e-05   2.0397951247704793e-05   2.4049026483639086e-05   2.4050062589132145e-05   2.8080665230981769e-05   2.8082610162278995e-05   3.2337084695165200e-05   3.2340072412307093e-05   2.8644282736021860e-05   3.6658151986918643e-05   5.1430054227359826e-05   4.1250803698128434e-05   5.5266740139440420e-05   5.5265808146756546e-05   5.8404467065543961e-05   5.8403640593649350e-05   6.0722538306440986e-05   6.0721870346069754e-05   6.2131753832610624e-05   6.2131245723467959e-05   6.2577839858270678e-05   6.2577458315543009e-05   6.2043542147018592e-05   6.2043232668693870e-05   6.0549296771417464e-05   6.0548993985465236e-05   5.8152450145343982e-05   5.8152085946858539e-05   5.4945057931637918e-05   5.4944567955783303e-05   5.1050347849662168e-05   5.1049676537633910e-05   4.6617982935591601e-05   4.6617087299262875e-05   4.1818307809748649e-05   4.1817159974597408e-05   3.6835799466785696e-05   3.6834388073631789e-05   3.1861974512878012e-05   3.1860305103229231e-05   2.7088025563767624e-05   2.7086120095409343e-05   2.2697469804256187e-05   2.2695365479463265e-05   1.8859092178820187e-05   1.8856839777161361e-05   1.5720454298794102e-05   1.5718116215031326e-05   1.3402218381139549e-05   1.3399866559926297e-05   1.1993504200812618e-05   1.1991218146333619e-05   1.1548457349845966e-05   1.1546322363689166e-05   1.2084160570019466e-05   1.2082266345980689e-05   1.3579968346413607e-05   1.3578408027333015e-05   1.5978290289702986e-05   1.5977160077185875e-05   1.9186793184830549e-05   1.9186192601130031e-05   2.3081937073787908e-05   2.3081970016667818e-05   2.7513709464620982e-05   2.7514486297240857e-05   3.2311375708584757e-05   3.2313016799855724e-05   3.7290024694704191e-05   3.7292666061823515e-05   4.2257658897099905e-05   4.2261460893028868e-05   3.6841282590911631e-05   4.7027717857330357e-05   6.2089846700377733e-05   4.9695700812028863e-05   6.5639063378934709e-05   6.5637308878088995e-05   6.8211317106335779e-05   6.8209719492909625e-05   6.9707635066994355e-05   6.9706242776716170e-05   7.0070404959587604e-05   7.0069216283346155e-05   6.9285587311669741e-05   6.9284566338603519e-05   6.7383257559920049e-05   6.7382347779679173e-05   6.4436453851431850e-05   6.4435589060601867e-05   6.0558372890996040e-05   6.0557485735971732e-05   5.5898020926925292e-05   5.5897049475230618e-05   5.0634487061799817e-05   5.0633379677268142e-05   4.4970059312840797e-05   4.4968778016796679e-05   3.9122448326276422e-05   3.9120970804072275e-05   3.3316417869111733e-05   3.3314738279741120e-05   2.7775143912359545e-05   2.7773272689987181e-05   2.2711634442959980e-05   2.2709597296467016e-05   1.8320539718326591e-05   1.8318376056203047e-05   1.4770667610903859e-05   1.4768428621840166e-05   1.2198491545371024e-05   1.2196238160190662e-05   1.0702900368932976e-05   1.0700701311065772e-05   1.0341391766793036e-05   1.0339321873483069e-05   1.1127855384265283e-05   1.1125994345904493e-05   1.3032030763231712e-05   1.3030462394719841e-05   1.5980660884691915e-05   1.5979473011048713e-05   1.9860297009313326e-05   1.9859582025277621e-05   2.4521647103968566e-05   2.4521503264111934e-05   2.9785300881208102e-05   2.9785834397695797e-05   3.5448611657051177e-05   3.5449939733891071e-05   4.1293470926116475e-05   4.1295725925482178e-05   4.7094677556980804e-05   4.7098012542981250e-05   5.2628581075453770e-05   5.2633177112704706e-05   4.5286118750772785e-05   5.7687743989367541e-05   7.2461165762864585e-05   5.7894291485342616e-05   7.5563004166884795e-05   7.5560383219640660e-05   7.7424721129736298e-05   7.7422341072516833e-05   7.7974665499717070e-05   7.7972564391046205e-05   7.7191619087496166e-05   7.7189787514302151e-05   7.5105608258667453e-05   7.5104004444004414e-05   7.1796749030579235e-05   7.1795312248968014e-05   6.7392168552399964e-05   6.7390830120956095e-05   6.2061119978726878e-05   6.2059811838136250e-05   5.6008477777118686e-05   5.6007138913355056e-05   4.9466863297339313e-05   4.9465444268700992e-05   4.2687703322791371e-05   4.2686169130144207e-05   3.5931565403249344e-05   3.5929896931729329e-05   2.9458141547819891e-05   2.9456335808795942e-05   2.3516265275623764e-05   2.3514334696321499e-05   1.8334345677513951e-05   1.8332316695157322e-05   1.4111586037550448e-05   1.4109497260633791e-05   1.1010324366101925e-05   1.1008224559207755e-05   9.1497900503492861e-06   9.1477361797444883e-06   8.6015164016292331e-06   8.5995719498351885e-06   9.3865852589867270e-06   9.3848189784695073e-06   1.1474809437211530e-05   1.1473294670321470e-05   1.4785884393274458e-05   1.4784699040008951e-05   1.9192464871529270e-05   1.9191692046848816e-05   2.4525048391717137e-05   2.4524777780779443e-05   3.0578478092561530e-05   3.0578807993472454e-05   3.7119815321061744e-05   3.7120855359981626e-05   4.3897279852033477e-05   4.3899154359048256e-05   5.0649914824827961e-05   5.0652766848867910e-05   5.7117605962369375e-05   5.7121601856055903e-05   6.3051071241210159e-05   6.3056405885949133e-05   5.3654088290956033e-05   6.8228341172668985e-05   8.2145205331218222e-05   6.5531323330196513e-05   8.4656959158786017e-05   8.4653465338416703e-05   8.5690400646160333e-05   8.5687258874821734e-05   8.5205745714932819e-05   8.5202978363949577e-05   8.3221576839062852e-05   8.3219162447037339e-05   7.9814123460590199e-05   7.9812011194806991e-05   7.5114328949123148e-05   7.5112451605903222e-05   6.9302816326256180e-05   6.9301101040731736e-05   6.2602945445359434e-05   6.2601321981171887e-05   5.5272227869636133e-05   5.5270634651952740e-05   4.7592429099024461e-05   4.7590817244493904e-05   3.9858738462182005e-05   3.9857074084381413e-05   3.2368422892470797e-05   3.2366687965630381e-05   2.5409400652915677e-05   2.5407592723872038e-05   1.9249174108881919e-05   1.9247305153577144e-05   1.4124546794811295e-05   1.4122641515658281e-05   1.0232519840526178e-05   1.0230613691631542e-05   7.7227174623289256e-06   7.7208546710390707e-06   6.6916324557188854e-06   6.6898642766106791e-06   7.1789126897616043e-06   7.1772960859769339e-06   9.1658312013067254e-06   9.1644280981972256e-06   1.2575998619046082e-05   1.2574875822506953e-05   1.7278290542275724e-05   1.7277520358298267e-05   2.3091877464694301e-05   2.3091539007550256e-05   2.9793164120750042e-05   2.9793345253356721e-05   3.7124371872023056e-05   3.7125171687782753e-05   4.4803434733364804e-05   4.4804966462282518e-05   5.2534829335459128e-05   5.2537223526685919e-05   6.0020923453394622e-05   6.0024331236238904e-05   6.6973408092073410e-05   6.6978004238361840e-05   7.3124374896628986e-05   7.3130360632650180e-05   6.1623445270973958e-05   7.8244219751997217e-05   9.0769588652188176e-05   7.2313139069591641e-05   9.2571242444383653e-05   9.2566906166090604e-05   9.2690522128347673e-05   9.2686669458052728e-05   9.1122829331394235e-05   9.1119462297957219e-05   8.7928422711902444e-05   8.7925504055217374e-05   8.3230095294188733e-05   8.3227562341965170e-05   7.7208450106516278e-05   7.7206227181808338e-05   7.0094955719371871e-05   7.0092964281420642e-05   6.2163048135485351e-05   6.2161214498239391e-05   5.3717620517213866e-05   5.3715881279742978e-05   4.5083304342701975e-05   4.5081609788449211e-05   3.6591992150792969e-05   3.6590307926665239e-05   2.8570081266746431e-05   2.8568388668533767e-05   2.1325928636696210e-05   2.1324223838455944e-05   1.5137998776905095e-05   1.5136291336432103e-05   1.0244160187101379e-05   1.0242471150535298e-05   6.8325414134224937e-06   6.8309013173514176e-06   5.0342980075567652e-06   5.0327450464734578e-06   4.9185681938246568e-06   4.9171467745572540e-06   6.4898109735716702e-06   6.4885708257831501e-06   9.6876288817928180e-06   9.6866248331677738e-06   1.4389082188702032e-05   1.4388374651106876e-05   2.0413405671898603e-05   2.0413061821124262e-05   2.7528946844910543e-05   2.7529042418606964e-05   3.5462059267841903e-05   3.5462680854135908e-05   4.3907609552754495e-05   4.3908857196427203e-05   5.2540694804023488e-05   5.2542684716935656e-05   6.1029120890981404e-05   6.1031988005776258e-05   6.9046162914734453e-05   6.9050062962153162e-05   7.6283118597245375e-05   7.6288229315330991e-05   8.2461173057271972e-05   8.2467694477791716e-05   6.8887773463623898e-05   8.7350273551231507e-05   9.8002688997522123e-05   7.7978969342794026e-05   9.9001532760545826e-05   9.8996419066083930e-05   9.8155918485457285e-05   9.8151432788168871e-05   9.5498398101809330e-05   9.5494518289285978e-05   9.1131178806795493e-05   9.1127848895259598e-05   8.5222186978309658e-05   8.5219330345662729e-05   7.7998607964431912e-05   7.7996138987723867e-05   6.9738150309177935e-05   6.9735983694740433e-05   6.0758369880214853e-05   6.0756427577757908e-05   5.1404463779533818e-05   5.1402679629542443e-05   4.2036002751441933e-05   4.2034325143402847e-05   3.3013111670016486e-05   3.3011504550778883e-05   2.4682628965155090e-05   2.4681071559653815e-05   1.7364776681941443e-05   1.7363262295320812e-05   1.134085