<?xml version="1.0"?>
<VTKFile type="UnstructuredGrid"  version="0.1"  >
<UnstructuredGrid>
<Piece  NumberOfPoints="81" NumberOfCells="128">
<Points>
<DataArray  type="Float64"  NumberOfComponents="3"  format="ascii">0 0 0  0.125 0 0  0.25 0 0  0.375 0 0  0.5 0 0  0.625 0 0  0.75 0 0  0.875 0 0  1 0 0  0 0.125 0  0.125 0.125 0  0.25 0.125 0  0.375 0.125 0  0.5 0.125 0  0.625 0.125 0  0.75 0.125 0  0.875 0.125 0  1 0.125 0  0 0.25 0  0.125 0.25 0  0.25 0.25 0  0.375 0.25 0  0.5 0.25 0  0.625 0.25 0  0.75 0.25 0  0.875 0.25 0  1 0.25 0  0 0.375 0  0.125 0.375 0  0.25 0.375 0  0.375 0.375 0  0.5 0.375 0  0.625 0.375 0  0.75 0.375 0  0.875 0.375 0  1 0.375 0  0 0.5 0  0.125 0.5 0  0.25 0.5 0  0.375 0.5 0  0.5 0.5 0  0.625 0.5 0  0.75 0.5 0  0.875 0.5 0  1 0.5 0  0 0.625 0  0.125 0.625 0  0.25 0.625 0  0.375 0.625 0  0.5 0.625 0  0.625 0.625 0  0.75 0.625 0  0.875 0.625 0  1 0.625 0  0 0.75 0  0.125 0.75 0  0.25 0.75 0  0.375 0.75 0  0.5 0.75 0  0.625 0.75 0  0.75 0.75 0  0.875 0.75 0  1 0.75 0  0 0.875 0  0.125 0.875 0  0.25 0.875 0  0.375 0.875 0  0.5 0.875 0  0.625 0.875 0  0.75 0.875 0  0.875 0.875 0  1 0.875 0  0 1 0  0.125 1 0  0.25 1 0  0.375 1 0  0.5 1 0  0.625 1 0  0.75 1 0  0.875 1 0  1 1 0  </DataArray>
</Points>
<Cells>
<DataArray  type="UInt32"  Name="connectivity"  format="ascii">0 1 10  0 9 10  1 2 11  1 10 11  2 3 12  2 11 12  3 4 13  3 12 13  4 5 14  4 13 14  5 6 15  5 14 15  6 7 16  6 15 16  7 8 17  7 16 17  9 10 19  9 18 19  10 11 20  10 19 20  11 12 21  11 20 21  12 13 22  12 21 22  13 14 23  13 22 23  14 15 24  14 23 24  15 16 25  15 24 25  16 17 26  16 25 26  18 19 28  18 27 28  19 20 29  19 28 29  20 21 30  20 29 30  21 22 31  21 30 31  22 23 32  22 31 32  23 24 33  23 32 33  24 25 34  24 33 34  25 26 35  25 34 35  27 28 37  27 36 37  28 29 38  28 37 38  29 30 39  29 38 39  30 31 40  30 39 40  31 32 41  31 40 41  32 33 42  32 41 42  33 34 43  33 42 43  34 35 44  34 43 44  36 37 46  36 45 46  37 38 47  37 46 47  38 39 48  38 47 48  39 40 49  39 48 49  40 41 50  40 49 50  41 42 51  41 50 51  42 43 52  42 51 52  43 44 53  43 52 53  45 46 55  45 54 55  46 47 56  46 55 56  47 48 57  47 56 57  48 49 58  48 57 58  49 50 59  49 58 59  50 51 60  50 59 60  51 52 61  51 60 61  52 53 62  52 61 62  54 55 64  54 63 64  55 56 65  55 64 65  56 57 66  56 65 66  57 58 67  57 66 67  58 59 68  58 67 68  59 60 69  59 68 69  60 61 70  60 69 70  61 62 71  61 70 71  63 64 73  63 72 73  64 65 74  64 73 74  65 66 75  65 74 75  66 67 76  66 75 76  67 68 77  67 76 77  68 69 78  68 77 78  69 70 79  69 78 79  70 71 80  70 79 80  </DataArray>
<DataArray  type="UInt32"  Name="offsets"  format="ascii">3 6 9 12 15 18 21 24 27 30 33 36 39 42 45 48 51 54 57 60 63 66 69 72 75 78 81 84 87 90 93 96 99 102 105 108 111 114 117 120 123 126 129 132 135 138 141 144 147 150 153 156 159 162 165 168 171 174 177 180 183 186 189 192 195 198 201 204 207 210 213 216 219 222 225 228 231 234 237 240 243 246 249 252 255 258 261 264 267 270 273 276 279 282 285 288 291 294 297 300 303 306 309 312 315 318 321 324 327 330 333 336 339 342 345 348 351 354 357 360 363 366 369 372 375 378 381 384 </DataArray>
<DataArray  type="UInt8"  Name="types"  format="ascii">5 5 5 5 5 5 5 5 5 5 5 5 5 5 5 5 5 5 5 5 5 5 5 5 5 5 5 5 5 5 5 5 5 5 5 5 5 5 5 5 5 5 5 5 5 5 5 5 5 5 5 5 5 5 5 5 5 5 5 5 5 5 5 5 5 5 5 5 5 5 5 5 5 5 5 5 5 5 5 5 5 5 5 5 5 5 5 5 5 5 5 5 5 5 5 5 5 5 5 5 5 5 5 5 5 5 5 5 5 5 5 5 5 5 5 5 5 5 5 5 5 5 5 5 5 5 5 5 </DataArray>
</Cells>
<CellData  Scalars="f_88091"> 
<DataArray  type="Float64"  Name="f_88091"  format="ascii">7.6700082448670688e-04   7.4360704649098269e-04   4.4753884672539437e-04   5.1717373286637024e-04   1.4575934403013058e-04   2.3455790472812232e-04   3.7964285776868442e-05   9.1114819703325719e-05   1.8741385870654981e-04   1.7149737704989868e-04   5.0697399999157151e-04   4.2887077430892495e-04   8.1002944885658252e-04   7.1246427876255807e-04   9.1880297837340283e-04   8.5781725555986047e-04   4.8349519333744156e-04   3.7714545948627337e-04   2.8322755600944464e-04   2.5917600094487342e-04   1.7189327447410921e-04   2.0260608118427686e-04   2.1648699353199385e-04   2.6383549999451885e-04   3.9113630148351306e-04   4.0667320747980127e-04   5.9357097718247846e-04   5.4750799487040549e-04   7.0414349175905932e-04   6.0383032517226213e-04   6.4935687369502824e-04   5.4368217885403540e-04   1.6886827946720960e-04   8.1037242933547753e-05   1.7733482541932975e-04   1.1991630465130181e-04   2.9787177907294852e-04   2.8155344056863917e-04   4.6182644881600246e-04   4.8339180711259671e-04   5.7312257674080607e-04   6.0702790554499489e-04   5.6645439692520460e-04   5.8001813100615304e-04   4.4480182293844340e-04   4.1821977972248862e-04   2.7262597881794166e-04   2.1612446691820760e-04   4.5199053159338848e-05   2.7833705886207108e-05   2.1994681624399215e-04   1.8283130644512619e-04   4.6403689553156169e-04   4.2712886371253984e-04   6.3573923078677854e-04   6.2279098549758894e-04   6.3441983466037651e-04   6.5567232709803404e-04   4.6083371225218080e-04   5.0649073987168829e-04   2.1661015407360696e-04   2.6264179700446989e-04   3.9041779279637030e-05   6.5308380001910749e-05   1.8572398173786195e-04   2.4874341848689038e-04   3.8586549990959104e-04   4.1118613973342895e-04   5.7267505306882616e-04   5.5394384898889621e-04   6.3652566906210008e-04   6.0027805811974783e-04   5.4001094316447052e-04   5.2409252302248999e-04   3.3973232585751326e-04   3.6996928422572390e-04   1.5379823544147165e-04   2.2810878560371026e-04   8.6647156397288701e-05   1.7936491303616311e-04   5.0814759350354430e-04   6.1481807653263987e-04   5.7785384534424157e-04   6.7098103185908489e-04   5.6008402394171024e-04   5.8750781487456412e-04   4.6370100915960321e-04   4.2898571342954016e-04   3.4516130403287372e-04   2.8935546099316534e-04   2.7399465957830290e-04   2.5040324702758541e-04   2.9313810312249261e-04   3.3491614900847699e-04   3.8791028981029435e-04   4.9157714045993750e-04   8.2332013926536638e-04   9.1190102141831212e-04   6.8332789975355797e-04   8.0856680835445253e-04   4.3368022839514609e-04   5.0723622572557256e-04   2.1851468591929595e-04   2.0889704957542988e-04   1.6387941649591062e-04   8.9371420328100798e-05   3.0199409506847120e-04   2.1890731352258421e-04   5.5316951101199471e-04   5.2194078219599854e-04   7.6620389135240369e-04   8.2077069605328572e-04   9.4794114475218615e-04   9.5894515474631548e-04   6.4202784138341301e-04   7.4402820408255217e-04   2.6791597909230021e-04   3.5800910656182843e-04   4.3491759348959147e-05   6.4421164988320314e-05   1.0029313706376046e-04   3.6776907789964247e-05   4.0537704299526350e-04   2.9170157153634489e-04   7.8136302134281205e-04   6.7990326925130835e-04   9.9838339084836391e-04   9.7296811013942996e-04   </DataArray> 
</CellData> 
</Piece>
</UnstructuredGrid>
</VTKFile>