<?xml version="1.0"?>
<VTKFile type="UnstructuredGrid"  version="0.1"  >
<UnstructuredGrid>
<Piece  NumberOfPoints="4225" NumberOfCells="8192">
<Points>
<DataArray  type="Float64"  NumberOfComponents="3"  format="ascii">0 0 0  0.015625 0 0  0.03125 0 0  0.046875 0 0  0.0625 0 0  0.078125 0 0  0.09375 0 0  0.109375 0 0  0.125 0 0  0.140625 0 0  0.15625 0 0  0.171875 0 0  0.1875 0 0  0.203125 0 0  0.21875 0 0  0.234375 0 0  0.25 0 0  0.265625 0 0  0.28125 0 0  0.296875 0 0  0.3125 0 0  0.328125 0 0  0.34375 0 0  0.359375 0 0  0.375 0 0  0.390625 0 0  0.40625 0 0  0.421875 0 0  0.4375 0 0  0.453125 0 0  0.46875 0 0  0.484375 0 0  0.5 0 0  0.515625 0 0  0.53125 0 0  0.546875 0 0  0.5625 0 0  0.578125 0 0  0.59375 0 0  0.609375 0 0  0.625 0 0  0.640625 0 0  0.65625 0 0  0.671875 0 0  0.6875 0 0  0.703125 0 0  0.71875 0 0  0.734375 0 0  0.75 0 0  0.765625 0 0  0.78125 0 0  0.796875 0 0  0.8125 0 0  0.828125 0 0  0.84375 0 0  0.859375 0 0  0.875 0 0  0.890625 0 0  0.90625 0 0  0.921875 0 0  0.9375 0 0  0.953125 0 0  0.96875 0 0  0.984375 0 0  1 0 0  0 0.015625 0  0.015625 0.015625 0  0.03125 0.015625 0  0.046875 0.015625 0  0.0625 0.015625 0  0.078125 0.015625 0  0.09375 0.015625 0  0.109375 0.015625 0  0.125 0.015625 0  0.140625 0.015625 0  0.15625 0.015625 0  0.171875 0.015625 0  0.1875 0.015625 0  0.203125 0.015625 0  0.21875 0.015625 0  0.234375 0.015625 0  0.25 0.015625 0  0.265625 0.015625 0  0.28125 0.015625 0  0.296875 0.015625 0  0.3125 0.015625 0  0.328125 0.015625 0  0.34375 0.015625 0  0.359375 0.015625 0  0.375 0.015625 0  0.390625 0.015625 0  0.40625 0.015625 0  0.421875 0.015625 0  0.4375 0.015625 0  0.453125 0.015625 0  0.46875 0.015625 0  0.484375 0.015625 0  0.5 0.015625 0  0.515625 0.015625 0  0.53125 0.015625 0  0.546875 0.015625 0  0.5625 0.015625 0  0.578125 0.015625 0  0.59375 0.015625 0  0.609375 0.015625 0  0.625 0.015625 0  0.640625 0.015625 0  0.65625 0.015625 0  0.671875 0.015625 0  0.6875 0.015625 0  0.703125 0.015625 0  0.71875 0.015625 0  0.734375 0.015625 0  0.75 0.015625 0  0.765625 0.015625 0  0.78125 0.015625 0  0.796875 0.015625 0  0.8125 0.015625 0  0.828125 0.015625 0  0.84375 0.015625 0  0.859375 0.015625 0  0.875 0.015625 0  0.890625 0.015625 0  0.90625 0.015625 0  0.921875 0.015625 0  0.9375 0.015625 0  0.953125 0.015625 0  0.96875 0.015625 0  0.984375 0.015625 0  1 0.015625 0  0 0.03125 0  0.015625 0.03125 0  0.03125 0.03125 0  0.046875 0.03125 0  0.0625 0.03125 0  0.078125 0.03125 0  0.09375 0.03125 0  0.109375 0.03125 0  0.125 0.03125 0  0.140625 0.03125 0  0.15625 0.03125 0  0.171875 0.03125 0  0.1875 0.03125 0  0.203125 0.03125 0  0.21875 0.03125 0  0.234375 0.03125 0  0.25 0.03125 0  0.265625 0.03125 0  0.28125 0.03125 0  0.296875 0.03125 0  0.3125 0.03125 0  0.328125 0.03125 0  0.34375 0.03125 0  0.359375 0.03125 0  0.375 0.03125 0  0.390625 0.03125 0  0.40625 0.03125 0  0.421875 0.03125 0  0.4375 0.03125 0  0.453125 0.03125 0  0.46875 0.03125 0  0.484375 0.03125 0  0.5 0.03125 0  0.515625 0.03125 0  0.53125 0.03125 0  0.546875 0.03125 0  0.5625 0.03125 0  0.578125 0.03125 0  0.59375 0.03125 0  0.609375 0.03125 0  0.625 0.03125 0  0.640625 0.03125 0  0.65625 0.03125 0  0.671875 0.03125 0  0.6875 0.03125 0  0.703125 0.03125 0  0.71875 0.03125 0  0.734375 0.03125 0  0.75 0.03125 0  0.765625 0.03125 0  0.78125 0.03125 0  0.796875 0.03125 0  0.8125 0.03125 0  0.828125 0.03125 0  0.84375 0.03125 0  0.859375 0.03125 0  0.875 0.03125 0  0.890625 0.03125 0  0.90625 0.03125 0  0.921875 0.03125 0  0.9375 0.03125 0  0.953125 0.03125 0  0.96875 0.03125 0  0.984375 0.03125 0  1 0.03125 0  0 0.046875 0  0.015625 0.046875 0  0.03125 0.046875 0  0.046875 0.046875 0  0.0625 0.046875 0  0.078125 0.046875 0  0.09375 0.046875 0  0.109375 0.046875 0  0.125 0.046875 0  0.140625 0.046875 0  0.15625 0.046875 0  0.171875 0.046875 0  0.1875 0.046875 0  0.203125 0.046875 0  0.21875 0.046875 0  0.234375 0.046875 0  0.25 0.046875 0  0.265625 0.046875 0  0.28125 0.046875 0  0.296875 0.046875 0  0.3125 0.046875 0  0.328125 0.046875 0  0.34375 0.046875 0  0.359375 0.046875 0  0.375 0.046875 0  0.390625 0.046875 0  0.40625 0.046875 0  0.421875 0.046875 0  0.4375 0.046875 0  0.453125 0.046875 0  0.46875 0.046875 0  0.484375 0.046875 0  0.5 0.046875 0  0.515625 0.046875 0  0.53125 0.046875 0  0.546875 0.046875 0  0.5625 0.046875 0  0.578125 0.046875 0  0.59375 0.046875 0  0.609375 0.046875 0  0.625 0.046875 0  0.640625 0.046875 0  0.65625 0.046875 0  0.671875 0.046875 0  0.6875 0.046875 0  0.703125 0.046875 0  0.71875 0.046875 0  0.734375 0.046875 0  0.75 0.046875 0  0.765625 0.046875 0  0.78125 0.046875 0  0.796875 0.046875 0  0.8125 0.046875 0  0.828125 0.046875 0  0.84375 0.046875 0  0.859375 0.046875 0  0.875 0.046875 0  0.890625 0.046875 0  0.90625 0.046875 0  0.921875 0.046875 0  0.9375 0.046875 0  0.953125 0.046875 0  0.96875 0.046875 0  0.984375 0.046875 0  1 0.046875 0  0 0.0625 0  0.015625 0.0625 0  0.03125 0.0625 0  0.046875 0.0625 0  0.0625 0.0625 0  0.078125 0.0625 0  0.09375 0.0625 0  0.109375 0.0625 0  0.125 0.0625 0  0.140625 0.0625 0  0.15625 0.0625 0  0.171875 0.0625 0  0.1875 0.0625 0  0.203125 0.0625 0  0.21875 0.0625 0  0.234375 0.0625 0  0.25 0.0625 0  0.265625 0.0625 0  0.28125 0.0625 0  0.296875 0.0625 0  0.3125 0.0625 0  0.328125 0.0625 0  0.34375 0.0625 0  0.359375 0.0625 0  0.375 0.0625 0  0.390625 0.0625 0  0.40625 0.0625 0  0.421875 0.0625 0  0.4375 0.0625 0  0.453125 0.0625 0  0.46875 0.0625 0  0.484375 0.0625 0  0.5 0.0625 0  0.515625 0.0625 0  0.53125 0.0625 0  0.546875 0.0625 0  0.5625 0.0625 0  0.578125 0.0625 0  0.59375 0.0625 0  0.609375 0.0625 0  0.625 0.0625 0  0.640625 0.0625 0  0.65625 0.0625 0  0.671875 0.0625 0  0.6875 0.0625 0  0.703125 0.0625 0  0.71875 0.0625 0  0.734375 0.0625 0  0.75 0.0625 0  0.765625 0.0625 0  0.78125 0.0625 0  0.796875 0.0625 0  0.8125 0.0625 0  0.828125 0.0625 0  0.84375 0.0625 0  0.859375 0.0625 0  0.875 0.0625 0  0.890625 0.0625 0  0.90625 0.0625 0  0.921875 0.0625 0  0.9375 0.0625 0  0.953125 0.0625 0  0.96875 0.0625 0  0.984375 0.0625 0  1 0.0625 0  0 0.078125 0  0.015625 0.078125 0  0.03125 0.078125 0  0.046875 0.078125 0  0.0625 0.078125 0  0.078125 0.078125 0  0.09375 0.078125 0  0.109375 0.078125 0  0.125 0.078125 0  0.140625 0.078125 0  0.15625 0.078125 0  0.171875 0.078125 0  0.1875 0.078125 0  0.203125 0.078125 0  0.21875 0.078125 0  0.234375 0.078125 0  0.25 0.078125 0  0.265625 0.078125 0  0.28125 0.078125 0  0.296875 0.078125 0  0.3125 0.078125 0  0.328125 0.078125 0  0.34375 0.078125 0  0.359375 0.078125 0  0.375 0.078125 0  0.390625 0.078125 0  0.40625 0.078125 0  0.421875 0.078125 0  0.4375 0.078125 0  0.453125 0.078125 0  0.46875 0.078125 0  0.484375 0.078125 0  0.5 0.078125 0  0.515625 0.078125 0  0.53125 0.078125 0  0.546875 0.078125 0  0.5625 0.078125 0  0.578125 0.078125 0  0.59375 0.078125 0  0.609375 0.078125 0  0.625 0.078125 0  0.640625 0.078125 0  0.65625 0.078125 0  0.671875 0.078125 0  0.6875 0.078125 0  0.703125 0.078125 0  0.71875 0.078125 0  0.734375 0.078125 0  0.75 0.078125 0  0.765625 0.078125 0  0.78125 0.078125 0  0.796875 0.078125 0  0.8125 0.078125 0  0.828125 0.078125 0  0.84375 0.078125 0  0.859375 0.078125 0  0.875 0.078125 0  0.890625 0.078125 0  0.90625 0.078125 0  0.921875 0.078125 0  0.9375 0.078125 0  0.953125 0.078125 0  0.96875 0.078125 0  0.984375 0.078125 0  1 0.078125 0  0 0.09375 0  0.015625 0.09375 0  0.03125 0.09375 0  0.046875 0.09375 0  0.0625 0.09375 0  0.078125 0.09375 0  0.09375 0.09375 0  0.109375 0.09375 0  0.125 0.09375 0  0.140625 0.09375 0  0.15625 0.09375 0  0.171875 0.09375 0  0.1875 0.09375 0  0.203125 0.09375 0  0.21875 0.09375 0  0.234375 0.09375 0  0.25 0.09375 0  0.265625 0.09375 0  0.28125 0.09375 0  0.296875 0.09375 0  0.3125 0.09375 0  0.328125 0.09375 0  0.34375 0.09375 0  0.359375 0.09375 0  0.375 0.09375 0  0.390625 0.09375 0  0.40625 0.09375 0  0.421875 0.09375 0  0.4375 0.09375 0  0.453125 0.09375 0  0.46875 0.09375 0  0.484375 0.09375 0  0.5 0.09375 0  0.515625 0.09375 0  0.53125 0.09375 0  0.546875 0.09375 0  0.5625 0.09375 0  0.578125 0.09375 0  0.59375 0.09375 0  0.609375 0.09375 0  0.625 0.09375 0  0.640625 0.09375 0  0.65625 0.09375 0  0.671875 0.09375 0  0.6875 0.09375 0  0.703125 0.09375 0  0.71875 0.09375 0  0.734375 0.09375 0  0.75 0.09375 0  0.765625 0.09375 0  0.78125 0.09375 0  0.796875 0.09375 0  0.8125 0.09375 0  0.828125 0.09375 0  0.84375 0.09375 0  0.859375 0.09375 0  0.875 0.09375 0  0.890625 0.09375 0  0.90625 0.09375 0  0.921875 0.09375 0  0.9375 0.09375 0  0.953125 0.09375 0  0.96875 0.09375 0  0.984375 0.09375 0  1 0.09375 0  0 0.109375 0  0.015625 0.109375 0  0.03125 0.109375 0  0.046875 0.109375 0  0.0625 0.109375 0  0.078125 0.109375 0  0.09375 0.109375 0  0.109375 0.109375 0  0.125 0.109375 0  0.140625 0.109375 0  0.15625 0.109375 0  0.171875 0.109375 0  0.1875 0.109375 0  0.203125 0.109375 0  0.21875 0.109375 0  0.234375 0.109375 0  0.25 0.109375 0  0.265625 0.109375 0  0.28125 0.109375 0  0.296875 0.109375 0  0.3125 0.109375 0  0.328125 0.109375 0  0.34375 0.109375 0  0.359375 0.109375 0  0.375 0.109375 0  0.390625 0.109375 0  0.40625 0.109375 0  0.421875 0.109375 0  0.4375 0.109375 0  0.453125 0.109375 0  0.46875 0.109375 0  0.484375 0.109375 0  0.5 0.109375 0  0.515625 0.109375 0  0.53125 0.109375 0  0.546875 0.109375 0  0.5625 0.109375 0  0.578125 0.109375 0  0.59375 0.109375 0  0.609375 0.109375 0  0.625 0.109375 0  0.640625 0.109375 0  0.65625 0.109375 0  0.671875 0.109375 0  0.6875 0.109375 0  0.703125 0.109375 0  0.71875 0.109375 0  0.734375 0.109375 0  0.75 0.109375 0  0.765625 0.109375 0  0.78125 0.109375 0  0.796875 0.109375 0  0.8125 0.109375 0  0.828125 0.109375 0  0.84375 0.109375 0  0.859375 0.109375 0  0.875 0.109375 0  0.890625 0.109375 0  0.90625 0.109375 0  0.921875 0.109375 0  0.9375 0.109375 0  0.953125 0.109375 0  0.96875 0.109375 0  0.984375 0.109375 0  1 0.109375 0  0 0.125 0  0.015625 0.125 0  0.03125 0.125 0  0.046875 0.125 0  0.0625 0.125 0  0.078125 0.125 0  0.09375 0.125 0  0.109375 0.125 0  0.125 0.12
[...]
<CellData  Scalars="f_176370"> 
<DataArray  type="Float64"  Name="f_176370"  format="ascii">8.7410720686888014e-15   8.7092345093869641e-15   8.5980916225827154e-15   8.7896667123632171e-15   8.4162068979090123e-15   8.6182697235110980e-15   8.1968416179301550e-15   8.4077551861069802e-15   7.9421301025360509e-15   8.1606810075814161e-15   7.6545383254790344e-15   7.8794396401599701e-15   7.3368381078188200e-15   7.5667522732630590e-15   6.9920889054900426e-15   7.2256418402996016e-15   6.6236104613779368e-15   6.8593995611846351e-15   6.2349511415412629e-15   6.4715553833354733e-15   5.8298537612285988e-15   6.0658457572914671e-15   5.4122195064864296e-15   5.6461785077576535e-15   4.9860703414762973e-15   5.2165955671933485e-15   4.5555102594236437e-15   4.7812342136788621e-15   4.1246857493887412e-15   4.3442873000917113e-15   3.6977458584119304e-15   3.9099629110669750e-15   3.2788022297937511e-15   3.4824438536688721e-15   2.8718895036914331e-15   3.0658473849726068e-15   2.4809264597438341e-15   2.6641855647766676e-15   2.1096782757405533e-15   2.2813266207381708e-15   1.7617202670153125e-15   1.9209576962649767e-15   1.4404034527999997e-15   1.5865493423384772e-15   1.1488222842909779e-15   1.2813220947203669e-15   8.8978484326613180e-16   1.0082154593360811e-15   6.6578579836048433e-16   7.6985960230201921e-16   4.7898237968400994e-16   5.6855002116549183e-16   3.3117360400295728e-16   4.0622543745891487e-16   2.2378294872417395e-16   2.8444912617788912e-16   1.5784464330960592e-16   2.0439386025165563e-16   1.3399370880033330e-16   1.6683061647743999e-16   1.5245984241937373e-16   1.7212115048064636e-16   2.1306520542331941e-16   2.2021451273830838e-16   3.1522613575824433e-16   3.1064753943433415e-16   4.5795876906653160e-16   4.4254931289456371e-16   6.3988851394926972e-16   6.1464954919056434e-16   8.5926328989394976e-16   8.2529083119014064e-16   1.1139704011129993e-15   1.0724445715436226e-15   1.4015568827156627e-15   1.3537305473994777e-15   1.7192531242523603e-15   1.6664398253414982e-15   2.0639995427283801e-15   2.0075608479072199e-15   2.4324760482279947e-15   2.3738084383904616e-15   2.8211340174365821e-15   2.7616554373778244e-15   3.2262304703132368e-15   3.1673666733515736e-15   3.6438641164925044e-15   3.5870349318491650e-15   4.0700129266367715e-15   4.0166185871191317e-15   4.5005728675466236e-15   4.4519805235105905e-15   4.9313974264944710e-15   4.8889279794981014e-15   5.3583375456097144e-15   5.3232529265976052e-15   5.7772815790004150e-15   5.7507725966716646e-15   6.1841948922064384e-15   6.1673697654600139e-15   6.5751587219147338e-15   6.5690324074129580e-15   6.9464079182979273e-15   6.9518923373444881e-15   7.2943672150273624e-15   7.3122624752319075e-15   7.6156856797278514e-15   7.6466723688635027e-15   7.9072690255599585e-15   7.9519016508119873e-15   8.1663095121646675e-15   8.2250111166782729e-15   8.3903132613123978e-15   8.4633711686450698e-15   8.5771251177989123e-15   8.6646874388165284e-15   8.7249521732592967e-15   8.8270235792674888e-15   8.8323918534153737e-15   8.9488214165688478e-15   8.8984685665334595e-15   9.0289215609816732e-15   8.9227322619772453e-15   9.0665886588626502e-15   8.9056350159868991e-15   9.0612169001058556e-15   8.6708695212056797e-15   9.0129851603579344e-15   8.7418678799117791e-15   8.4790212005010040e-15   8.5856064107853254e-15   8.5452338024043285e-15   8.3901159348824454e-15   8.3614560264980334e-15   8.1580690003169823e-15   8.1416347343710637e-15   7.8916525525097932e-15   7.8875000234111991e-15   7.5934324684531711e-15   7.6013511525650098e-15   7.2662841737053146e-15   7.2859266354754956e-15   6.9133602874823038e-15   6.9442675618343446e-15   6.5380606487258258e-15   6.5796675773389903e-15   6.1440000792117304e-15   6.1956399868977909e-15   5.7349738344977396e-15   5.7958843575284347e-15   5.3149211810223375e-15   5.3842512324135172e-15   4.8878875166816624e-15   4.9647052590610838e-15   4.4579854409746879e-15   4.5412871290292710e-15   4.0293551618945036e-15   4.1180747309235228e-15   3.6061246310498613e-15   3.6991439187770649e-15   3.1923697936965528e-15   3.2885292800137833e-15   2.7920753355712061e-15   2.8901852925146667e-15   2.4090963114683209e-15   2.5079482501707761e-15   2.0471210176503674e-15   2.1454993196201792e-15   1.7096354729102252e-15   1.8063290931340510e-15   1.3998898470708366e-15   1.4937039728526931e-15   1.1208671584101218e-15   1.2106347148639555e-15   8.7525454733365087e-16   9.5984743522276256e-16   6.6541739667837637e-16   7.4375735592012949e-16   4.9337655295640383e-16   5.6444554541102458e-16   3.6078886291861126e-16   4.2363887667346095e-16   2.6893121885539989e-16   3.2269339748915647e-16   2.1868826039478741e-16   2.6258127001265322e-16   2.1054385535154577e-16   2.4388140908414257e-16   2.4457643982705435e-16   2.6677390674281574e-16   3.2045826272585172e-16   3.3103829792172485e-16   4.3745854238830457e-16   4.3605568378617540e-16   5.9445050408219252e-16   5.8081469182208361e-16   7.8992223201526126e-16   7.6392121633034901e-16   1.0219912296375064e-15   9.8361184425409305e-16   1.2884225491589479e-15   1.2377708374964961e-15   1.5866503149268783e-15   1.5239505093978575e-15   1.9138024356690807e-15   1.8393947969641138e-15   2.2667282630345913e-15   2.1810658030681571e-15   2.6420289343606829e-15   2.5456730533146804e-15   3.0360901057269065e-15   2.9297051856245034e-15   3.4451167615336005e-15   3.3294637664408836e-15   3.8651697609678602e-15   3.7410989081547338e-15   4.2922037750881370e-15   4.1606463468099949e-15   4.7221062466066758e-15   4.5840656204868561e-15   5.1507369961442288e-15   5.0072789812726572e-15   5.5739680968391642e-15   5.4262106676833933e-15   5.9877236293391171e-15   5.8368261571016214e-15   6.3880189402682200e-15   6.2351710239597557e-15   6.7709990219476313e-15   6.6174090255653653e-15   7.1329756533138999e-15   6.9798590547489537e-15   7.4704629412722455e-15   7.3190305993488600e-15   7.7802109435467858e-15   7.6316573775131092e-15   8.0592370724159837e-15   7.9147288225100830e-15   8.3048550587745313e-15   8.1655191281809976e-15   8.5147013772418337e-15   8.3816135827796345e-15   8.6867593243865006e-15   8.5609319409018428e-15   8.8193813043708620e-15   8.7017485422643299e-15   8.9113098146151070e-15   8.8027085781585455e-15   8.9616827304072420e-15   8.8628401832160875e-15   8.9698731473094094e-15   8.8815559750371244e-15   8.9344999518986907e-15   8.8583639493834917e-15   8.6805035504017462e-15   8.7940691602801331e-15   8.4831232769130357e-15   8.2123186011612549e-15   8.3147161863487946e-15   8.2637826157744412e-15   8.1094632718443269e-15   8.0700268323983348e-15   7.8699662715718403e-15   7.8426320093342036e-15   7.5983318264124241e-15   7.5832359841537728e-15   7.2971769426394636e-15   7.2941982935431179e-15   6.9694059308096747e-15   6.9782839792958978e-15   6.6181772007615232e-15   6.6385347078820806e-15   6.2468742893129792e-15   6.2782226251755003e-15   5.8590736665388003e-15   5.9008180947548258e-15   5.4585104439540031e-15   5.5099561208793930e-15   5.0490424934166608e-15   5.1094012475510747e-15   4.6346133549169755e-15   4.7030112829681953e-15   4.2192142932980904e-15   4.2947001577451887e-15   3.8068458827239673e-15   3.8884002508049306e-15   3.4014794905341660e-15   3.4880245336231291e-15   3.0070190389741955e-15   3.0974288987398374e-15   2.6272634122161534e-15   2.7203750340815379e-15   2.2658698744761414e-15   2.3604942008443997e-15   1.9263188501117488e-15   2.0212522671762352e-15   1.6118804057196595e-15   1.7059163317127535e-15   1.3255827593195312e-15   1.4175232613691892e-15   1.0701831163884814e-15   1.1588504467908973e-15   8.4814111763914275e-16   9.3238905401369976e-16   6.6159515081073476e-16   7.4032003457613612e-16   5.1234175752061682e-16   5.8449312175686097e-16   4.0181833123943863e-16   4.6640901702570517e-16   3.3108927486102362e-16   3.8720493767081132e-16   3.0083574969794526e-16   3.4764366482632310e-16   3.1134911564223906e-16   3.4810619754505869e-16   3.6252812536566754e-16   3.8858808379711474e-16   4.5387989910326928e-16   4.6869946318675687e-16   5.8452467189184102e-16   5.8766882179636305e-16   7.5320426585145821e-16   7.4435042213473184e-16   9.5829420682582573e-16   9.3723533713755694e-16   1.1978193699382161e-15   1.1644659826600124e-15   1.4694730004498685e-15   1.4238540061818445e-15   1.7706389294162572e-15   1.7129013622714449e-15   2.0984167683360238e-15   2.0288243703510917e-15   2.4496498423788033e-15   2.3685805228592009e-15   2.8209555907285639e-15   2.7288977865862962e-15   3.2087581423460511e-15   3.1063061135215363e-15   3.6093227542317279e-15   3.4971708607062504e-15   4.0187917786394757e-15   3.8977277931002462e-15   4.4332218160421463e-15   4.3041193356232454e-15   4.8486216922394167e-15   4.7124317243065018e-15   5.2609908962926237e-15   5.1187326982349598e-15   5.6663581107817229e-15   5.5191093711553696e-15   6.0608194596991662e-15   5.9097059146954471e-15   6.4405761110931910e-15   6.2867606955234048e-15   6.8019708704421607e-15   6.6466425036899890e-15   7.1415234168543386e-15   6.9858855277153764e-15   7.4559638497961645e-15   7.3012227400319507e-15   7.7422642287139892e-15   7.5896173665357948e-15   7.9976678288589293e-15   7.8482921442225397e-15   8.2197158484173582e-15   8.0747560696840338e-15   8.4062713329084006e-15   8.2668283660794423e-15   8.5555399456251953e-15   8.4226593637567177e-15   8.6660864091521357e-15   8.5407479135808765e-15   8.7368424473129738e-15   8.6199547254898084e-15   8.7670791335019829e-15   8.6595120633624950e-15   8.7562443117829389e-15   8.6590312760881275e-15   8.7036810307313940e-15   8.6182669212164599e-15   8.4378135021290148e-15   8.5385025057676734e-15   8.1882997685711530e-15   7.9111103975845758e-15   8.0097696821762929e-15   7.9484170100656944e-15   7.7966235288580018e-15   7.7463398673231153e-15   7.5516440860151218e-15   7.5131961967197584e-15   7.2769901025493136e-15   7.2505918732144976e-15   6.9753172325667195e-15   6.9609259147633781e-15   6.6495342132843283e-15   6.6469740143662482e-15   6.3027790336184186e-15   6.3117591733778274e-15   5.9383914048817383e-15   5.9585092664730116e-15   5.5598808448262973e-15   5.5906260516460283e-15   5.1708928413249362e-15   5.2116523886115904e-15   4.7751737316103869e-15   4.8252380395474714e-15   4.3765346283332545e-15   4.4351044593262369e-15   3.9788147282562360e-15   4.0450089248908603e-15   3.5858443502824113e-15   3.6587083370926383e-15   3.2014080542794825e-15   3.2799230353885180e-15   2.8292081996582631e-15   2.9123009709863450e-15   2.4728292943339215e-15   2.5593825768588467e-15   2.1357034761387090e-15   2.2245666734844763e-15   1.8210774611023243e-15   1.9110777386501970e-15   1.5319812772348393e-15   1.6219348553725076e-15   1.2711990846912183e-15   1.3599226376884937e-15   1.0412423629679307e-15   1.1275644140647747e-15   8.4432572463954533e-16   9.2709792755223955e-16   6.8234558769439607e-16   7.6045378458796914e-16   5.5686191214888993e-16   6.2923686348340763e-16   4.6908317687065608e-16   5.3471085826244886e-16   4.1985474133647064e-16   4.7778610895125876e-16   4.0965070460299207e-16   4.5901083480257068e-16   4.3856933939380163e-16   4.7856585443348808e-16   5.0633214576283845e-16   5.3626284471216649e-16   6.1228653328000453e-16   6.3154615444371450e-16   7.5541210572183494e-16   7.6349815558471181e-16   9.3433048831034065e-16   9.3084808073767910e-16   1.1473186020963946e-15   1.1319842610714876e-15   1.3923252583779702e-15   1.3649696478209090e-15   1.6669909123480223e-15   1.6275604669039042e-15   1.9686703870546951e-15   1.9172278283304905e-15   2.2944583486815938e-15   2.2311820801639834e-15   2.6412172857082390e-15   2.5663996748623395e-15   3.0056077251289677e-15   2.9196522871033690e-15   3.3841203939647579e-15   3.2875379053430438e-15   3.7731100151902901e-15   3.6665135950078072e-15   4.1688304146021856e-15   4.0529296177948926e-15   4.5674705988039779e-15   4.4430645832559027e-15   4.9651914586415210e-15   4.8331612855426578e-15   5.3581627413884478e-15   5.2194628891869953e-15   5.7425999424449496e-15   5.5982491100677623e-15   6.1148007529803667e-15   5.9658720444664086e-15   6.4711807211442950e-15   6.3187913012806250e-15   6.8083077787780915e-15   6.6536080984982163e-15   7.1229353052969870e-15   6.9670979977957518e-15   7.4120334103716592e-15   7.2562419566019834e-15   7.6728181344388251e-15   7.5182554009306216e-15   7.9027782785097752e-15   7.7506150295534588e-15   8.0996995701581654e-15   7.9510830813744884e-15   8.2616858204501023e-15   8.1177288028190273e-15   8.3871765099986035e-15   8.2489468493273555e-15   8.4749596468739675e-15   8.3434723759160452e-15   8.5241775567424084e-15   8.4003926426230330e-15   8.5343113805841051e-15   8.4191568277546091e-15   8.5050965460853984e-15   8.3995883396243405e-15   8.4362362205745107e-15   8.3416580861906083e-15   8.1579648755233205e-15   8.2469498877364090e-15   7.8604996510140719e-15   7.5783812378112948e-15   7.6733153307898090e-15   7.6020045629585195e-15   7.4539655382593941e-15   7.3932044289156171e-15   7.2054327964794545e-15   7.1561460157789134e-15   6.9299125072940968e-15   6.8924016247132880e-15   6.6300716009116374e-15   6.6043775673180653e-15   6.3088010771329198e-15   6.2948325327983430e-15   5.9691951276310106e-15   5.9667472347014673e-15   5.6145242769182537e-15   5.6232812834872873e-15   5.2482041928520331e-15   5.2677423464083134e-15   4.8737627821894945e-15   4.9035543488004697e-15   4.4948061845246183e-15   4.5342245552911833e-15   4.1149840216764293e-15   4.1633097928499890e-15   3.7379542430859457e-15   3.7943821811474088e-15   3.3673478941593497e-15   3.4309947151567771e-15   3.0067341500252501e-15   3.0766470388219263e-15   2.6595859430704315e-15   2.7347517375060113e-15   2.3292465192391196e-15   2.4086014696876062e-15   2.0188972417973370e-15   2.1013372578872791e-15   1.7315269548490869e-15   1.8159182382875321e-15   1.4699031993744198e-15   1.5550931628125461e-15   1.2365455620141472e-15   1.3213739285051978e-15   1.0337014089582007e-15   1.1170113863263991e-15   8.6332424488660117e-16   9.4397366509694328e-16   7.2705489832776452e-16   8.0392721729001029e-16   6.2620572070255839e-16   6.9822077066884370e-16   5.6174794740122621e-16   6.2787233962497864e-16   5.3430234458370873e-16   5.9355942085527139e-16   5.4413323078889585e-16   5.9561246928224414e-16   5.9114593155706568e-16   6.3401171537617168e-16   6.7488769128221918e-16   7.0838735573285024e-16   7.9455203338691118e-16   8.1802311465136801e-16   9.4898652739104145e-16   9.6186314198170225e-16   1.1367038870910634e-15   1.1385221820387680e-15   1.3558962947025569e-15   1.3462989138292636e-15   1.6044528102513683e-15   1.5831923363955878e-15   1.8799797018047129e-15   1.8469210390745682e-15   2.1798234983894964e-15   2.1349451727155395e-15   2.5010965437561172e-15   2.4444909103341353e-15   2.8407048075476355e-15   2.7725771602093297e-15   3.1953776810519155e-15   3.1160442754554678e-15   3.5616994757339463e-15   3.4715844835241180e-15   3.9361423195184869e-15   3.8357737419155709e-15   4.3151001303580997e-15   4.2051047126719598e-15   4.6949233465612460e-15   4.5760205421026374e-15   5.0719540748668339e-15   4.9449491131387255e-15   5.4425613179145448e-15   5.3083374484476624e-15   5.8031759447101651e-15   5.6626859274216709e-15   6.1503250649538295e-15   6.0045819889234943e-15   6.4806654770924919e-15   6.3307329965450421e-15   6.7910158678767474e-15   6.6379979478490561e-15   7.0783874522818313e-15   6.9234177213057246e-15   7.3400127561317853e-15   7.1842435702676577e-15   7.5733722555490936e-15   7.4179635829044775e-15   7.7762185987624021e-15   7.6223268530460230e-15   7.9465981257279117e-15   7.7953651119942108e-15   8.0828693884584802e-15   7.9354116076361765e-15   8.1837183105450689e-15   8.0411170303014969e-15   8.2481695833310734e-15   8.1114623720774824e-15   8.2755940431437938e-15   8.1457687763094547e-15   8.2657010539323943e-15   8.1437061482361960e-15   8.2184560594991922e-15   8.1053040447300946e-15   8.1336323093644857e-15   8.0307248436184801e-15   7.8444840719272725e-15   7.9218244479794691e-15   7.5026556314697452e-15   7.2173735396755913e-15   7.3083356000887634e-15   7.2278675414068136e-15   7.0845267247359877e-15   7.0140291252884630e-15   6.8344047851225092e-15   6.7749418210992288e-15   6.5601803793394055e-15   6.5121344200893341e-15   6.2645062905133074e-15   6.2280015986159253e-15   5.9502331804522467e-15   5.9252628405555780e-15   5.6203881339518422e-15   5.6068329533279161e-15   5.2781477725234994e-15   5.2757787669775561e-15   4.9268080068032292e-15   4.9352886168101179e-15   4.5697523948162736e-15   4.5886415939819427e-15   4.2104195707143131e-15   4.2391760516776219e-15   3.8522701176314930e-15   3.8902574952261561e-15   3.4987532308850263e-15   3.5452461806959186e-15   3.1532734930258462e-15   3.2074647490753045e-15   2.8191580831645441e-15   2.8801662237936123e-15   2.4996247324754066e-15   2.5665026763236578e-15   2.1977507369623465e-15   2.2694948677915295e-15   1.9164433194123837e-15   1.9920031551051779e-15   1.6584116335326672e-15   1.7366999445734310e-15   1.4261406732701647e-15   1.5060439533485633e-15   1.2218673408619052e-15   1.3022565315384904e-15   1.0475589053458920e-15   1.1273002691589784e-15   9.0489405637266950e-16   9.8286009570262257e-16   7.9524673806010411e-16   8.7032705299942904e-16   7.1967291702618508e-16   7.9078489941572012e-16   6.7890041326260463e-16   7.4499967249344855e-16   6.7332189085716277e-16   7.3341231187995020e-16   7.0299107642169924e-16   7.5613441262426681e-16   7.6762224178709716e-16   8.1294715090499932e-16   8.6659295579104182e-16   9.0330339115863441e-16   9.9895007861581691e-16   1.0263329556153148e-15   1.1634189412019563e-15   1.1808510043685834e-15   1.3584156209375246e-15   1.3653694461911786e-15   1.5820621957236849e-15   1.5781112697109001e-15   1.8322048293648900e-15   1.8170276570717849e-15   2.1064345144624238e-15   2.0798177148950002e-15   2.4021102723020423e-15   2.3639506334987476e-15   2.7163845869969715e-15   2.6666900599182680e-15   3.0462308288029368e-15   2.9851204502825449e-15   3.3884724020438739e-15   3.3161751483718127e-15   3.7398133377930020e-15   3.6566659190372271e-15   4.0968700363109423e-15   4.0033136528447493e-15   4.4562038519280599e-15   4.3527799453162548e-15   4.8143542110848990e-15   4.7016992483339857e-15   5.1678719387895574e-15   5.0467112813655806e-15   5.5133524764307561e-15   5.3844933923994437e-15   5.8474686699648529e-15   5.7117925586430023e-15   6.1670028133796021e-15   6.0254567119448306e-15   6.4688776346677436e-15   6.3224650947944722e-15   6.7501859327138717e-15   6.5999573510225497e-15   7.0082185660078475e-15   6.8552610660289632e-15   7.2404905338217244e-15   7.0859174992806451e-15   7.4447648754890313e-15   7.2897052494532286e-15   7.6190741531927830e-15   7.4646616271183943e-15   7.7617392796896013e-15   7.6091015249758611e-15   7.8713854877520244e-15   7.7216336038499569e-15   7.9469552978879221e-15   7.8011736563410019e-15   7.9877184249649721e-15   7.8469550820966236e-15   7.9932784744923553e-15   7.8585365381706307e-15   7.9635632764824856e-15   7.8358082359843037e-15   7.8987292527080078e-15   7.7790000126532323e-15   7.7986181174903527e-15   7.6884588453578957e-15   7.5004185364262250e-15   7.5663001982578211e-15   7.1181776142745411e-15   6.8315718639283880e-15   6.9183087520187894e-15   6.8296111611407591e-15   6.6918378504988929e-15   6.6124711535641254e-15   6.4421059359260273e-15   6.3732625788968246e-15   6.1713242242011169e-15   6.1134597888453575e-15   5.8821103345363135e-15   5.8354283239350565e-15   5.5772521837589735e-15   5.5418281268646904e-15   5.2596863410572944e-15   5.2354855402241266e-15   4.9324713316958948e-15   4.9193508967622872e-15   4.5987584306675579e-15   4.5964689024916713e-15   4.2617614472247619e-15   4.2699491456283017e-15   3.9247258209989734e-15   3.9429361901000844e-15   3.5908973762493503e-15   3.6185793291093996e-15   3.2634910620689261e-15   3.3000022765516846e-15   2.945659