<?xml version="1.0"?>
<VTKFile type="UnstructuredGrid"  version="0.1"  >
<UnstructuredGrid>
<Piece  NumberOfPoints="25" NumberOfCells="32">
<Points>
<DataArray  type="Float64"  NumberOfComponents="3"  format="ascii">0 0 0  0.25 0 0  0.5 0 0  0.75 0 0  1 0 0  0 0.25 0  0.25 0.25 0  0.5 0.25 0  0.75 0.25 0  1 0.25 0  0 0.5 0  0.25 0.5 0  0.5 0.5 0  0.75 0.5 0  1 0.5 0  0 0.75 0  0.25 0.75 0  0.5 0.75 0  0.75 0.75 0  1 0.75 0  0 1 0  0.25 1 0  0.5 1 0  0.75 1 0  1 1 0  </DataArray>
</Points>
<Cells>
<DataArray  type="UInt32"  Name="connectivity"  format="ascii">0 1 6  0 5 6  1 2 7  1 6 7  2 3 8  2 7 8  3 4 9  3 8 9  5 6 11  5 10 11  6 7 12  6 11 12  7 8 13  7 12 13  8 9 14  8 13 14  10 11 16  10 15 16  11 12 17  11 16 17  12 13 18  12 17 18  13 14 19  13 18 19  15 16 21  15 20 21  16 17 22  16 21 22  17 18 23  17 22 23  18 19 24  18 23 24  </DataArray>
<DataArray  type="UInt32"  Name="offsets"  format="ascii">3 6 9 12 15 18 21 24 27 30 33 36 39 42 45 48 51 54 57 60 63 66 69 72 75 78 81 84 87 90 93 96 </DataArray>
<DataArray  type="UInt8"  Name="types"  format="ascii">5 5 5 5 5 5 5 5 5 5 5 5 5 5 5 5 5 5 5 5 5 5 5 5 5 5 5 5 5 5 5 5 </DataArray>
</Cells>
<CellData  Scalars="f_42"> 
<DataArray  type="Float64"  Name="f_42"  format="ascii">7.3066316043774387e-09   6.5288746987508604e-09   1.3009818935191447e-09   3.3270494816474338e-09   6.6630439556484853e-09   5.9645532200399970e-09   1.2842889690985228e-08   9.8019260605628758e-09   2.5857037981407179e-09   7.1523439719876958e-10   7.4792801886602756e-09   7.0515584554029964e-09   8.5748480871093483e-09   9.6856823216328008e-09   3.5161896713298393e-09   3.6223939641393303e-09   5.9921318448910751e-09   8.1410590617831660e-09   9.1326209040855622e-09   8.4333622479512562e-09   5.8144994336878035e-09   5.2182514941578937e-09   2.5287456280720638e-09   5.2869117936625545e-09   1.1420097669505961e-08   1.4310503678728320e-08   3.2299173338809758e-09   4.6453211004887225e-09   4.3094666298958233e-09   1.3301171190776814e-09   1.2566756389905646e-08   1.1619337145207739e-08   </DataArray> 
</CellData> 
</Piece>
</UnstructuredGrid>
</VTKFile>