<?xml version="1.0"?>
<VTKFile type="UnstructuredGrid"  version="0.1"  >
<UnstructuredGrid>
<Piece  NumberOfPoints="81" NumberOfCells="128">
<Points>
<DataArray  type="Float64"  NumberOfComponents="3"  format="ascii">0 0 0  0.125 0 0  0.25 0 0  0.375 0 0  0.5 0 0  0.625 0 0  0.75 0 0  0.875 0 0  1 0 0  0 0.125 0  0.125 0.125 0  0.25 0.125 0  0.375 0.125 0  0.5 0.125 0  0.625 0.125 0  0.75 0.125 0  0.875 0.125 0  1 0.125 0  0 0.25 0  0.125 0.25 0  0.25 0.25 0  0.375 0.25 0  0.5 0.25 0  0.625 0.25 0  0.75 0.25 0  0.875 0.25 0  1 0.25 0  0 0.375 0  0.125 0.375 0  0.25 0.375 0  0.375 0.375 0  0.5 0.375 0  0.625 0.375 0  0.75 0.375 0  0.875 0.375 0  1 0.375 0  0 0.5 0  0.125 0.5 0  0.25 0.5 0  0.375 0.5 0  0.5 0.5 0  0.625 0.5 0  0.75 0.5 0  0.875 0.5 0  1 0.5 0  0 0.625 0  0.125 0.625 0  0.25 0.625 0  0.375 0.625 0  0.5 0.625 0  0.625 0.625 0  0.75 0.625 0  0.875 0.625 0  1 0.625 0  0 0.75 0  0.125 0.75 0  0.25 0.75 0  0.375 0.75 0  0.5 0.75 0  0.625 0.75 0  0.75 0.75 0  0.875 0.75 0  1 0.75 0  0 0.875 0  0.125 0.875 0  0.25 0.875 0  0.375 0.875 0  0.5 0.875 0  0.625 0.875 0  0.75 0.875 0  0.875 0.875 0  1 0.875 0  0 1 0  0.125 1 0  0.25 1 0  0.375 1 0  0.5 1 0  0.625 1 0  0.75 1 0  0.875 1 0  1 1 0  </DataArray>
</Points>
<Cells>
<DataArray  type="UInt32"  Name="connectivity"  format="ascii">0 1 10  0 9 10  1 2 11  1 10 11  2 3 12  2 11 12  3 4 13  3 12 13  4 5 14  4 13 14  5 6 15  5 14 15  6 7 16  6 15 16  7 8 17  7 16 17  9 10 19  9 18 19  10 11 20  10 19 20  11 12 21  11 20 21  12 13 22  12 21 22  13 14 23  13 22 23  14 15 24  14 23 24  15 16 25  15 24 25  16 17 26  16 25 26  18 19 28  18 27 28  19 20 29  19 28 29  20 21 30  20 29 30  21 22 31  21 30 31  22 23 32  22 31 32  23 24 33  23 32 33  24 25 34  24 33 34  25 26 35  25 34 35  27 28 37  27 36 37  28 29 38  28 37 38  29 30 39  29 38 39  30 31 40  30 39 40  31 32 41  31 40 41  32 33 42  32 41 42  33 34 43  33 42 43  34 35 44  34 43 44  36 37 46  36 45 46  37 38 47  37 46 47  38 39 48  38 47 48  39 40 49  39 48 49  40 41 50  40 49 50  41 42 51  41 50 51  42 43 52  42 51 52  43 44 53  43 52 53  45 46 55  45 54 55  46 47 56  46 55 56  47 48 57  47 56 57  48 49 58  48 57 58  49 50 59  49 58 59  50 51 60  50 59 60  51 52 61  51 60 61  52 53 62  52 61 62  54 55 64  54 63 64  55 56 65  55 64 65  56 57 66  56 65 66  57 58 67  57 66 67  58 59 68  58 67 68  59 60 69  59 68 69  60 61 70  60 69 70  61 62 71  61 70 71  63 64 73  63 72 73  64 65 74  64 73 74  65 66 75  65 74 75  66 67 76  66 75 76  67 68 77  67 76 77  68 69 78  68 77 78  69 70 79  69 78 79  70 71 80  70 79 80  </DataArray>
<DataArray  type="UInt32"  Name="offsets"  format="ascii">3 6 9 12 15 18 21 24 27 30 33 36 39 42 45 48 51 54 57 60 63 66 69 72 75 78 81 84 87 90 93 96 99 102 105 108 111 114 117 120 123 126 129 132 135 138 141 144 147 150 153 156 159 162 165 168 171 174 177 180 183 186 189 192 195 198 201 204 207 210 213 216 219 222 225 228 231 234 237 240 243 246 249 252 255 258 261 264 267 270 273 276 279 282 285 288 291 294 297 300 303 306 309 312 315 318 321 324 327 330 333 336 339 342 345 348 351 354 357 360 363 366 369 372 375 378 381 384 </DataArray>
<DataArray  type="UInt8"  Name="types"  format="ascii">5 5 5 5 5 5 5 5 5 5 5 5 5 5 5 5 5 5 5 5 5 5 5 5 5 5 5 5 5 5 5 5 5 5 5 5 5 5 5 5 5 5 5 5 5 5 5 5 5 5 5 5 5 5 5 5 5 5 5 5 5 5 5 5 5 5 5 5 5 5 5 5 5 5 5 5 5 5 5 5 5 5 5 5 5 5 5 5 5 5 5 5 5 5 5 5 5 5 5 5 5 5 5 5 5 5 5 5 5 5 5 5 5 5 5 5 5 5 5 5 5 5 5 5 5 5 5 5 </DataArray>
</Cells>
<CellData  Scalars="f_44122"> 
<DataArray  type="Float64"  Name="f_44122"  format="ascii">7.2367188722377609e-09   6.7026067471715594e-09   5.2380068849511983e-09   4.7116039568801580e-09   2.4015655562291467e-09   2.1328543354484383e-09   3.8883858033870317e-10   3.3417821026459602e-10   3.8063221189021490e-10   3.7504508055042435e-10   2.3764366181452778e-09   2.2116174669118506e-09   5.2190078781375828e-09   4.8867991884171080e-09   7.2268502658723438e-09   6.4251890002430781e-09   7.0248543197313032e-09   4.0855355183089804e-09   5.9455228440907276e-09   2.9491263073433548e-09   4.2762225585441780e-09   2.4134158275014674e-09   2.8743207802977220e-09   2.3177857630086704e-09   2.5617480765831033e-09   2.7953020744534812e-09   3.4981578406058719e-09   3.5374728646646532e-09   5.2753874938271071e-09   4.2381219616155767e-09   6.4000853983059541e-09   3.9128178421096787e-09   4.8407696750424574e-09   1.3276309234559067e-09   5.3054477248576011e-09   1.4831392131681492e-09   5.7543294446855570e-09   3.0114235398713684e-09   5.5302726881125864e-09   4.6165284530346497e-09   4.8021806219698784e-09   5.4591033097758233e-09   3.9762916419246756e-09   5.0106382415703205e-09   3.6731409048486944e-09   3.6156102452213161e-09   3.4666774045888997e-09   1.7348493933174736e-09   2.4167639210707790e-09   1.1796854859905919e-11   4.5134938060039357e-09   1.0915212823147883e-09   6.8114906450879887e-09   3.7861050420588597e-09   7.6508297797855030e-09   6.4799709277205608e-09   6.5795151105945964e-09   7.6203307458813024e-09   4.2187061915044112e-09   6.5208858240119391e-09   2.0218009411137625e-09   3.8400804748301769e-09   9.1859636086275127e-10   1.1460076046373701e-09   1.1461813623077962e-09   9.1481870853940066e-10   3.8399900910405827e-09   2.0232091768263832e-09   6.5204968749093846e-09   4.2184975887962290e-09   7.6198437801185134e-09   6.5791631880852156e-09   6.4796335892463590e-09   7.6503594813892248e-09   3.7859012906422140e-09   6.8111459223909495e-09   1.0916653574891142e-09   4.5143917603738308e-09   1.1395051476169279e-11   2.4129346820398555e-09   1.7313498753161383e-09   3.4599076411693535e-09   3.6174819112851295e-09   3.6760751378648486e-09   5.0107383684418299e-09   3.9763678482950825e-09   5.4591376783287286e-09   4.8023567080402710e-09   4.6166032632155306e-09   5.5303078056182035e-09   3.0112167069128535e-09   5.7545085545661352e-09   1.4846763492065654e-09   5.3063439033579233e-09   1.3235796617026932e-09   4.8351078102848746e-09   3.9047987970219046e-09   6.3861551274371292e-09   4.2389322580097386e-09   5.2782521819177875e-09   3.5346870167438439e-09   3.4958641859885246e-09   2.7927338649001534e-09   2.5592331098892120e-09   2.3159148982950666e-09   2.8716102097217498e-09   2.4127940946269710e-09   4.2735898777313879e-09   2.9508902991435525e-09   5.9421974195999896e-09   4.0794381970527327e-09   7.0207937143316478e-09   6.4121392312039802e-09   7.2268502658723628e-09   4.8917891557502997e-09   5.2198883799673422e-09   2.2123876425828300e-09   2.3773126157195980e-09   3.7635723789398729e-10   3.8185023987858050e-10   3.3508641302782444e-10   3.9003903472280647e-10   2.1327663344655555e-09   2.4025804321867221e-09   4.7092103320813739e-09   5.2386428982747876e-09   6.6978712531481445e-09   7.2369014479294335e-09   </DataArray> 
</CellData> 
</Piece>
</UnstructuredGrid>
</VTKFile>