<?xml version="1.0"?>
<VTKFile type="UnstructuredGrid"  version="0.1"  >
<UnstructuredGrid>
<Piece  NumberOfPoints="81" NumberOfCells="128">
<Points>
<DataArray  type="Float64"  NumberOfComponents="3"  format="ascii">0 0 0  0.125 0 0  0.25 0 0  0.375 0 0  0.5 0 0  0.625 0 0  0.75 0 0  0.875 0 0  1 0 0  0 0.125 0  0.125 0.125 0  0.25 0.125 0  0.375 0.125 0  0.5 0.125 0  0.625 0.125 0  0.75 0.125 0  0.875 0.125 0  1 0.125 0  0 0.25 0  0.125 0.25 0  0.25 0.25 0  0.375 0.25 0  0.5 0.25 0  0.625 0.25 0  0.75 0.25 0  0.875 0.25 0  1 0.25 0  0 0.375 0  0.125 0.375 0  0.25 0.375 0  0.375 0.375 0  0.5 0.375 0  0.625 0.375 0  0.75 0.375 0  0.875 0.375 0  1 0.375 0  0 0.5 0  0.125 0.5 0  0.25 0.5 0  0.375 0.5 0  0.5 0.5 0  0.625 0.5 0  0.75 0.5 0  0.875 0.5 0  1 0.5 0  0 0.625 0  0.125 0.625 0  0.25 0.625 0  0.375 0.625 0  0.5 0.625 0  0.625 0.625 0  0.75 0.625 0  0.875 0.625 0  1 0.625 0  0 0.75 0  0.125 0.75 0  0.25 0.75 0  0.375 0.75 0  0.5 0.75 0  0.625 0.75 0  0.75 0.75 0  0.875 0.75 0  1 0.75 0  0 0.875 0  0.125 0.875 0  0.25 0.875 0  0.375 0.875 0  0.5 0.875 0  0.625 0.875 0  0.75 0.875 0  0.875 0.875 0  1 0.875 0  0 1 0  0.125 1 0  0.25 1 0  0.375 1 0  0.5 1 0  0.625 1 0  0.75 1 0  0.875 1 0  1 1 0  </DataArray>
</Points>
<Cells>
<DataArray  type="UInt32"  Name="connectivity"  format="ascii">0 1 10  0 9 10  1 2 11  1 10 11  2 3 12  2 11 12  3 4 13  3 12 13  4 5 14  4 13 14  5 6 15  5 14 15  6 7 16  6 15 16  7 8 17  7 16 17  9 10 19  9 18 19  10 11 20  10 19 20  11 12 21  11 20 21  12 13 22  12 21 22  13 14 23  13 22 23  14 15 24  14 23 24  15 16 25  15 24 25  16 17 26  16 25 26  18 19 28  18 27 28  19 20 29  19 28 29  20 21 30  20 29 30  21 22 31  21 30 31  22 23 32  22 31 32  23 24 33  23 32 33  24 25 34  24 33 34  25 26 35  25 34 35  27 28 37  27 36 37  28 29 38  28 37 38  29 30 39  29 38 39  30 31 40  30 39 40  31 32 41  31 40 41  32 33 42  32 41 42  33 34 43  33 42 43  34 35 44  34 43 44  36 37 46  36 45 46  37 38 47  37 46 47  38 39 48  38 47 48  39 40 49  39 48 49  40 41 50  40 49 50  41 42 51  41 50 51  42 43 52  42 51 52  43 44 53  43 52 53  45 46 55  45 54 55  46 47 56  46 55 56  47 48 57  47 56 57  48 49 58  48 57 58  49 50 59  49 58 59  50 51 60  50 59 60  51 52 61  51 60 61  52 53 62  52 61 62  54 55 64  54 63 64  55 56 65  55 64 65  56 57 66  56 65 66  57 58 67  57 66 67  58 59 68  58 67 68  59 60 69  59 68 69  60 61 70  60 69 70  61 62 71  61 70 71  63 64 73  63 72 73  64 65 74  64 73 74  65 66 75  65 74 75  66 67 76  66 75 76  67 68 77  67 76 77  68 69 78  68 77 78  69 70 79  69 78 79  70 71 80  70 79 80  </DataArray>
<DataArray  type="UInt32"  Name="offsets"  format="ascii">3 6 9 12 15 18 21 24 27 30 33 36 39 42 45 48 51 54 57 60 63 66 69 72 75 78 81 84 87 90 93 96 99 102 105 108 111 114 117 120 123 126 129 132 135 138 141 144 147 150 153 156 159 162 165 168 171 174 177 180 183 186 189 192 195 198 201 204 207 210 213 216 219 222 225 228 231 234 237 240 243 246 249 252 255 258 261 264 267 270 273 276 279 282 285 288 291 294 297 300 303 306 309 312 315 318 321 324 327 330 333 336 339 342 345 348 351 354 357 360 363 366 369 372 375 378 381 384 </DataArray>
<DataArray  type="UInt8"  Name="types"  format="ascii">5 5 5 5 5 5 5 5 5 5 5 5 5 5 5 5 5 5 5 5 5 5 5 5 5 5 5 5 5 5 5 5 5 5 5 5 5 5 5 5 5 5 5 5 5 5 5 5 5 5 5 5 5 5 5 5 5 5 5 5 5 5 5 5 5 5 5 5 5 5 5 5 5 5 5 5 5 5 5 5 5 5 5 5 5 5 5 5 5 5 5 5 5 5 5 5 5 5 5 5 5 5 5 5 5 5 5 5 5 5 5 5 5 5 5 5 5 5 5 5 5 5 5 5 5 5 5 5 </DataArray>
</Cells>
<CellData  Scalars="f_44119"> 
<DataArray  type="Float64"  Name="f_44119"  format="ascii">1.3131827959385400e-09   2.0341207873887476e-09   3.9808833474965447e-09   3.0396740317462296e-09   6.9377058694169866e-09   5.2126133492598943e-09   8.4495480709492658e-09   7.2903827758335932e-09   7.6309648124988671e-09   8.0562520946273796e-09   4.9603405296950581e-09   7.0608277839832505e-09   2.0048372929133847e-09   4.8893482376089396e-09   4.8088868592910944e-10   2.8153220233535631e-09   3.5156784258020533e-09   5.4184492434829825e-09   4.3634110354426943e-09   4.9259111714843980e-09   5.2079375647992291e-09   4.5118913408694276e-09   5.5382678779811890e-09   4.4122656587632684e-09   5.1619041028493917e-09   4.6826886736380546e-09   4.2993078425942799e-09   5.1648829739517708e-09   3.4604460874794853e-09   5.5763829474531384e-09   3.1238690994144397e-09   5.6910209989013490e-09   6.5757158651306157e-09   8.3046343706692325e-09   5.1663338046191009e-09   6.4974279925564946e-09   3.3499595683612533e-09   3.7524577224711378e-09   2.1639308119895051e-09   1.6545158085390480e-09   2.3052377053292396e-09   1.4307911686809714e-09   3.6909087660316317e-09   3.2125298945997223e-09   5.5134340347800137e-09   5.9555994097108673e-09   6.7099409226268684e-09   8.0775481179259927e-09   8.7028588018499711e-09   8.9978356682373707e-09   5.9129205705530419e-09   6.8114562159223769e-09   2.4306288952536157e-09   3.3481145763798929e-09   2.6852919590120008e-10   6.0411794895675562e-10   6.9409183233818907e-10   1.8416692374690386e-10   3.4581760844099782e-09   2.3341456763546213e-09   6.9452244479687206e-09   5.7948101346913442e-09   9.1335849098420440e-09   8.5623507806082942e-09   8.6527358233044538e-09   7.0926884467827697e-09   6.1643917956058576e-09   5.6867993773281355e-09   2.9873798975757012e-09   3.5399820461764522e-09   9.6037726282896859e-10   1.8783674614202735e-09   1.2708927415941362e-09   1.6731803628969056e-09   3.7372792114543880e-09   3.0440794314589260e-09   6.9163031494991839e-09   5.1895089940740949e-09   8.9775928725469710e-09   6.8668557796301703e-09   6.4528286706559331e-09   3.7039421507050579e-09   5.7732276009187466e-09   3.7818991757418521e-09   4.6941377592181609e-09   4.2146740784215291e-09   3.8341612247268504e-09   4.7307402718429318e-09   3.6970469063007385e-09   5.0262570963081398e-09   4.3632911450291095e-09   4.9272775475486734e-09   5.4431260812124585e-09   4.4945392655063173e-09   6.3317591601460214e-09   3.9824919225616731e-09   3.3957652837521589e-09   8.2017335063628388e-10   4.9690667353996487e-09   2.2165518398176101e-09   6.5505964111635003e-09   4.9827625755552101e-09   7.2066757554463429e-09   7.4948867965396758e-09   6.5535584954312244e-09   8.2808365761658650e-09   4.9736848291629349e-09   6.8800130421774946e-09   3.3912705626738345e-09   4.1142320084023774e-09   2.7465712588050836e-09   1.5991719247516644e-09   1.2695518383768536e-09   1.2439908164209108e-10   4.2369359488214037e-09   1.8972056666705958e-09   7.4944458275215520e-09   5.3899951715292357e-09   9.1269026485255961e-09   8.5642502180770150e-09   8.1807615871328589e-09   9.5609345658575058e-09   5.2092590900013331e-09   7.7954876525594147e-09   1.9537553372236316e-09   4.3022925432680204e-09   3.2014346108192515e-10   1.1270408231214715e-09   </DataArray> 
</CellData> 
</Piece>
</UnstructuredGrid>
</VTKFile>