<?xml version="1.0"?>
<VTKFile type="UnstructuredGrid"  version="0.1"  >
<UnstructuredGrid>
<Piece  NumberOfPoints="1089" NumberOfCells="2048">
<Points>
<DataArray  type="Float64"  NumberOfComponents="3"  format="ascii">0 0 0  0.03125 0 0  0.0625 0 0  0.09375 0 0  0.125 0 0  0.15625 0 0  0.1875 0 0  0.21875 0 0  0.25 0 0  0.28125 0 0  0.3125 0 0  0.34375 0 0  0.375 0 0  0.40625 0 0  0.4375 0 0  0.46875 0 0  0.5 0 0  0.53125 0 0  0.5625 0 0  0.59375 0 0  0.625 0 0  0.65625 0 0  0.6875 0 0  0.71875 0 0  0.75 0 0  0.78125 0 0  0.8125 0 0  0.84375 0 0  0.875 0 0  0.90625 0 0  0.9375 0 0  0.96875 0 0  1 0 0  0 0.03125 0  0.03125 0.03125 0  0.0625 0.03125 0  0.09375 0.03125 0  0.125 0.03125 0  0.15625 0.03125 0  0.1875 0.03125 0  0.21875 0.03125 0  0.25 0.03125 0  0.28125 0.03125 0  0.3125 0.03125 0  0.34375 0.03125 0  0.375 0.03125 0  0.40625 0.03125 0  0.4375 0.03125 0  0.46875 0.03125 0  0.5 0.03125 0  0.53125 0.03125 0  0.5625 0.03125 0  0.59375 0.03125 0  0.625 0.03125 0  0.65625 0.03125 0  0.6875 0.03125 0  0.71875 0.03125 0  0.75 0.03125 0  0.78125 0.03125 0  0.8125 0.03125 0  0.84375 0.03125 0  0.875 0.03125 0  0.90625 0.03125 0  0.9375 0.03125 0  0.96875 0.03125 0  1 0.03125 0  0 0.0625 0  0.03125 0.0625 0  0.0625 0.0625 0  0.09375 0.0625 0  0.125 0.0625 0  0.15625 0.0625 0  0.1875 0.0625 0  0.21875 0.0625 0  0.25 0.0625 0  0.28125 0.0625 0  0.3125 0.0625 0  0.34375 0.0625 0  0.375 0.0625 0  0.40625 0.0625 0  0.4375 0.0625 0  0.46875 0.0625 0  0.5 0.0625 0  0.53125 0.0625 0  0.5625 0.0625 0  0.59375 0.0625 0  0.625 0.0625 0  0.65625 0.0625 0  0.6875 0.0625 0  0.71875 0.0625 0  0.75 0.0625 0  0.78125 0.0625 0  0.8125 0.0625 0  0.84375 0.0625 0  0.875 0.0625 0  0.90625 0.0625 0  0.9375 0.0625 0  0.96875 0.0625 0  1 0.0625 0  0 0.09375 0  0.03125 0.09375 0  0.0625 0.09375 0  0.09375 0.09375 0  0.125 0.09375 0  0.15625 0.09375 0  0.1875 0.09375 0  0.21875 0.09375 0  0.25 0.09375 0  0.28125 0.09375 0  0.3125 0.09375 0  0.34375 0.09375 0  0.375 0.09375 0  0.40625 0.09375 0  0.4375 0.09375 0  0.46875 0.09375 0  0.5 0.09375 0  0.53125 0.09375 0  0.5625 0.09375 0  0.59375 0.09375 0  0.625 0.09375 0  0.65625 0.09375 0  0.6875 0.09375 0  0.71875 0.09375 0  0.75 0.09375 0  0.78125 0.09375 0  0.8125 0.09375 0  0.84375 0.09375 0  0.875 0.09375 0  0.90625 0.09375 0  0.9375 0.09375 0  0.96875 0.09375 0  1 0.09375 0  0 0.125 0  0.03125 0.125 0  0.0625 0.125 0  0.09375 0.125 0  0.125 0.125 0  0.15625 0.125 0  0.1875 0.125 0  0.21875 0.125 0  0.25 0.125 0  0.28125 0.125 0  0.3125 0.125 0  0.34375 0.125 0  0.375 0.125 0  0.40625 0.125 0  0.4375 0.125 0  0.46875 0.125 0  0.5 0.125 0  0.53125 0.125 0  0.5625 0.125 0  0.59375 0.125 0  0.625 0.125 0  0.65625 0.125 0  0.6875 0.125 0  0.71875 0.125 0  0.75 0.125 0  0.78125 0.125 0  0.8125 0.125 0  0.84375 0.125 0  0.875 0.125 0  0.90625 0.125 0  0.9375 0.125 0  0.96875 0.125 0  1 0.125 0  0 0.15625 0  0.03125 0.15625 0  0.0625 0.15625 0  0.09375 0.15625 0  0.125 0.15625 0  0.15625 0.15625 0  0.1875 0.15625 0  0.21875 0.15625 0  0.25 0.15625 0  0.28125 0.15625 0  0.3125 0.15625 0  0.34375 0.15625 0  0.375 0.15625 0  0.40625 0.15625 0  0.4375 0.15625 0  0.46875 0.15625 0  0.5 0.15625 0  0.53125 0.15625 0  0.5625 0.15625 0  0.59375 0.15625 0  0.625 0.15625 0  0.65625 0.15625 0  0.6875 0.15625 0  0.71875 0.15625 0  0.75 0.15625 0  0.78125 0.15625 0  0.8125 0.15625 0  0.84375 0.15625 0  0.875 0.15625 0  0.90625 0.15625 0  0.9375 0.15625 0  0.96875 0.15625 0  1 0.15625 0  0 0.1875 0  0.03125 0.1875 0  0.0625 0.1875 0  0.09375 0.1875 0  0.125 0.1875 0  0.15625 0.1875 0  0.1875 0.1875 0  0.21875 0.1875 0  0.25 0.1875 0  0.28125 0.1875 0  0.3125 0.1875 0  0.34375 0.1875 0  0.375 0.1875 0  0.40625 0.1875 0  0.4375 0.1875 0  0.46875 0.1875 0  0.5 0.1875 0  0.53125 0.1875 0  0.5625 0.1875 0  0.59375 0.1875 0  0.625 0.1875 0  0.65625 0.1875 0  0.6875 0.1875 0  0.71875 0.1875 0  0.75 0.1875 0  0.78125 0.1875 0  0.8125 0.1875 0  0.84375 0.1875 0  0.875 0.1875 0  0.90625 0.1875 0  0.9375 0.1875 0  0.96875 0.1875 0  1 0.1875 0  0 0.21875 0  0.03125 0.21875 0  0.0625 0.21875 0  0.09375 0.21875 0  0.125 0.21875 0  0.15625 0.21875 0  0.1875 0.21875 0  0.21875 0.21875 0  0.25 0.21875 0  0.28125 0.21875 0  0.3125 0.21875 0  0.34375 0.21875 0  0.375 0.21875 0  0.40625 0.21875 0  0.4375 0.21875 0  0.46875 0.21875 0  0.5 0.21875 0  0.53125 0.21875 0  0.5625 0.21875 0  0.59375 0.21875 0  0.625 0.21875 0  0.65625 0.21875 0  0.6875 0.21875 0  0.71875 0.21875 0  0.75 0.21875 0  0.78125 0.21875 0  0.8125 0.21875 0  0.84375 0.21875 0  0.875 0.21875 0  0.90625 0.21875 0  0.9375 0.21875 0  0.96875 0.21875 0  1 0.21875 0  0 0.25 0  0.03125 0.25 0  0.0625 0.25 0  0.09375 0.25 0  0.125 0.25 0  0.15625 0.25 0  0.1875 0.25 0  0.21875 0.25 0  0.25 0.25 0  0.28125 0.25 0  0.3125 0.25 0  0.34375 0.25 0  0.375 0.25 0  0.40625 0.25 0  0.4375 0.25 0  0.46875 0.25 0  0.5 0.25 0  0.53125 0.25 0  0.5625 0.25 0  0.59375 0.25 0  0.625 0.25 0  0.65625 0.25 0  0.6875 0.25 0  0.71875 0.25 0  0.75 0.25 0  0.78125 0.25 0  0.8125 0.25 0  0.84375 0.25 0  0.875 0.25 0  0.90625 0.25 0  0.9375 0.25 0  0.96875 0.25 0  1 0.25 0  0 0.28125 0  0.03125 0.28125 0  0.0625 0.28125 0  0.09375 0.28125 0  0.125 0.28125 0  0.15625 0.28125 0  0.1875 0.28125 0  0.21875 0.28125 0  0.25 0.28125 0  0.28125 0.28125 0  0.3125 0.28125 0  0.34375 0.28125 0  0.375 0.28125 0  0.40625 0.28125 0  0.4375 0.28125 0  0.46875 0.28125 0  0.5 0.28125 0  0.53125 0.28125 0  0.5625 0.28125 0  0.59375 0.28125 0  0.625 0.28125 0  0.65625 0.28125 0  0.6875 0.28125 0  0.71875 0.28125 0  0.75 0.28125 0  0.78125 0.28125 0  0.8125 0.28125 0  0.84375 0.28125 0  0.875 0.28125 0  0.90625 0.28125 0  0.9375 0.28125 0  0.96875 0.28125 0  1 0.28125 0  0 0.3125 0  0.03125 0.3125 0  0.0625 0.3125 0  0.09375 0.3125 0  0.125 0.3125 0  0.15625 0.3125 0  0.1875 0.3125 0  0.21875 0.3125 0  0.25 0.3125 0  0.28125 0.3125 0  0.3125 0.3125 0  0.34375 0.3125 0  0.375 0.3125 0  0.40625 0.3125 0  0.4375 0.3125 0  0.46875 0.3125 0  0.5 0.3125 0  0.53125 0.3125 0  0.5625 0.3125 0  0.59375 0.3125 0  0.625 0.3125 0  0.65625 0.3125 0  0.6875 0.3125 0  0.71875 0.3125 0  0.75 0.3125 0  0.78125 0.3125 0  0.8125 0.3125 0  0.84375 0.3125 0  0.875 0.3125 0  0.90625 0.3125 0  0.9375 0.3125 0  0.96875 0.3125 0  1 0.3125 0  0 0.34375 0  0.03125 0.34375 0  0.0625 0.34375 0  0.09375 0.34375 0  0.125 0.34375 0  0.15625 0.34375 0  0.1875 0.34375 0  0.21875 0.34375 0  0.25 0.34375 0  0.28125 0.34375 0  0.3125 0.34375 0  0.34375 0.34375 0  0.375 0.34375 0  0.40625 0.34375 0  0.4375 0.34375 0  0.46875 0.34375 0  0.5 0.34375 0  0.53125 0.34375 0  0.5625 0.34375 0  0.59375 0.34375 0  0.625 0.34375 0  0.65625 0.34375 0  0.6875 0.34375 0  0.71875 0.34375 0  0.75 0.34375 0  0.78125 0.34375 0  0.8125 0.34375 0  0.84375 0.34375 0  0.875 0.34375 0  0.90625 0.34375 0  0.9375 0.34375 0  0.96875 0.34375 0  1 0.34375 0  0 0.375 0  0.03125 0.375 0  0.0625 0.375 0  0.09375 0.375 0  0.125 0.375 0  0.15625 0.375 0  0.1875 0.375 0  0.21875 0.375 0  0.25 0.375 0  0.28125 0.375 0  0.3125 0.375 0  0.34375 0.375 0  0.375 0.375 0  0.40625 0.375 0  0.4375 0.375 0  0.46875 0.375 0  0.5 0.375 0  0.53125 0.375 0  0.5625 0.375 0  0.59375 0.375 0  0.625 0.375 0  0.65625 0.375 0  0.6875 0.375 0  0.71875 0.375 0  0.75 0.375 0  0.78125 0.375 0  0.8125 0.375 0  0.84375 0.375 0  0.875 0.375 0  0.90625 0.375 0  0.9375 0.375 0  0.96875 0.375 0  1 0.375 0  0 0.40625 0  0.03125 0.40625 0  0.0625 0.40625 0  0.09375 0.40625 0  0.125 0.40625 0  0.15625 0.40625 0  0.1875 0.40625 0  0.21875 0.40625 0  0.25 0.40625 0  0.28125 0.40625 0  0.3125 0.40625 0  0.34375 0.40625 0  0.375 0.40625 0  0.40625 0.40625 0  0.4375 0.40625 0  0.46875 0.40625 0  0.5 0.40625 0  0.53125 0.40625 0  0.5625 0.40625 0  0.59375 0.40625 0  0.625 0.40625 0  0.65625 0.40625 0  0.6875 0.40625 0  0.71875 0.40625 0  0.75 0.40625 0  0.78125 0.40625 0  0.8125 0.40625 0  0.84375 0.40625 0  0.875 0.40625 0  0.90625 0.40625 0  0.9375 0.40625 0  0.96875 0.40625 0  1 0.40625 0  0 0.4375 0  0.03125 0.4375 0  0.0625 0.4375 0  0.09375 0.4375 0  0.125 0.4375 0  0.15625 0.4375 0  0.1875 0.4375 0  0.21875 0.4375 0  0.25 0.4375 0  0.28125 0.4375 0  0.3125 0.4375 0  0.34375 0.4375 0  0.375 0.4375 0  0.40625 0.4375 0  0.4375 0.4375 0  0.46875 0.4375 0  0.5 0.4375 0  0.53125 0.4375 0  0.5625 0.4375 0  0.59375 0.4375 0  0.625 0.4375 0  0.65625 0.4375 0  0.6875 0.4375 0  0.71875 0.4375 0  0.75 0.4375 0  0.78125 0.4375 0  0.8125 0.4375 0  0.84375 0.4375 0  0.875 0.4375 0  0.90625 0.4375 0  0.9375 0.4375 0  0.96875 0.4375 0  1 0.4375 0  0 0.46875 0  0.03125 0.46875 0  0.0625 0.46875 0  0.09375 0.46875 0  0.125 0.46875 0  0.15625 0.46875 0  0.1875 0.46875 0  0.21875 0.46875 0  0.25 0.46875 0  0.28125 0.46875 0  0.3125 0.46875 0  0.34375 0.46875 0  0.375 0.46875 0  0.40625 0.46875 0  0.4375 0.46875 0  0.46875 0.46875 0  0.5 0.46875 0  0.53125 0.46875 0  0.5625 0.46875 0  0.59375 0.46875 0  0.625 0.46875 0  0.65625 0.46875 0  0.6875 0.46875 0  0.71875 0.46875 0  0.75 0.46875 0  0.78125 0.46875 0  0.8125 0.46875 0  0.84375 0.46875 0  0.875 0.46875 0  0.90625 0.46875 0  0.9375 0.46875 0  0.96875 0.46875 0  1 0.46875 0  0 0.5 0  0.03125 0.5 0  0.0625 0.5 0  0.09375 0.5 0  0.125 0.5 0  0.15625 0.5 0  0.1875 0.5 0  0.21875 0.5 0  0.25 0.5 0  0.28125 0.5 0  0.3125 0.5 0  0.34375 0.5 0  0.375 0.5 0  0.40625 0.5 0  0.4375 0.5 0  0.46875 0.5 0  0.5 0.5 0  0.53125 0.5 0  0.5625 0.5 0  0.59375 0.5 0  0.625 0.5 0  0.65625 0.5 0  0.6875 0.5 0  0.71875 0.5 0  0.75 0.5 0  0.78125 0.5 0  0.8125 0.5 0  0.84375 0.5 0  0.875 0.5 0  0.90625 0.5 0  0.9375 0.5 0  0.96875 0.5 0  1 0.5 0  0 0.53125 0  0.03125 0.53125 0  0.0625 0.53125 0  0.09375 0.53125 0  0.125 0.53125 0  0.15625 0.53125 0  0.1875 0.53125 0  0.21875 0.53125 0  0.25 0.53125 0  0.28125 0.53125 0  0.3125 0.53125 0  0.34375 0.53125 0  0.375 0.53125 0  0.40625 0.53125 0  0.4375 0.53125 0  0.46875 0.53125 0  0.5 0.53125 0  0.53125 0.53125 0  0.5625 0.53125 0  0.59375 0.53125 0  0.625 0.53125 0  0.65625 0.53125 0  0.6875 0.53125 0  0.71875 0.53125 0  0.75 0.53125 0  0.78125 0.531
[...]
<CellData  Scalars="f_132264"> 
<DataArray  type="Float64"  Name="f_132264"  format="ascii">4.7410678963459813e-10   4.7188521360456564e-10   4.6502953161551752e-10   4.6227988087214120e-10   4.4722122212846247e-10   4.4458707854490383e-10   4.2136632709734057e-10   4.1886785847155345e-10   3.8845843349268344e-10   3.8614114380631283e-10   3.4976217634344938e-10   3.4766241809989762e-10   3.0676463316083107e-10   3.0491011619903793e-10   2.6111817687584443e-10   2.5952705646265730e-10   2.1457697619601788e-10   2.1325721971642689e-10   1.6892958394395737e-10   1.6787869254654888e-10   1.2593020403953488e-10   1.2513532138407842e-10   8.7231278494209894e-11   8.6669691408752662e-11   5.4319985059780502e-11   5.3960000271623676e-11   2.8461085888458854e-11   2.8263250609240083e-11   1.0648323495813674e-11   1.0566943630101311e-11   1.5662318503647236e-12   1.5511298159600825e-12   1.5638301665401645e-12   1.5622749471428854e-12   1.0641210332101612e-11   1.0599945690074625e-11   2.8449533406345643e-11   2.8316826375667825e-11   5.4304435320875732e-11   5.4032066294085568e-11   8.7212326612933131e-11   8.6757444639010714e-11   1.2590857547904614e-10   1.2523534711081657e-10   1.6890610691721442e-10   1.6798709765115834e-10   2.1455254974150925e-10   2.1336977113213353e-10   2.6109373795024007e-10   2.5963939755991579e-10   3.0674111465616627e-10   3.0501762429941981e-10   3.4974049695966408e-10   3.4776190845527973e-10   3.8843936215009682e-10   3.8622329106157735e-10   4.2135082184797839e-10   4.1895394193052505e-10   4.4720918659516915e-10   4.4456179940826882e-10   4.6502316338681588e-10   4.6262042221607105e-10   4.7410418714753486e-10   4.7053479656950489e-10   4.7197241619276144e-10   4.5914282353231829e-10   4.6265907273512401e-10   4.4859658586671806e-10   4.4544009319320497e-10   4.3186377154940218e-10   4.2036131686271153e-10   4.0734869398295540e-10   3.8841649666972299e-10   3.7621378433129881e-10   3.5083112469756670e-10   3.3963874473443095e-10   3.0904930065064126e-10   2.9903021043533229e-10   2.6467654669105214e-10   2.5594864500844137e-10   2.1941801679416400e-10   2.1204961415507326e-10   1.7501293265732425e-10   1.6902010666029483e-10   1.3316773145684891e-10   1.2851370291691615e-10   9.5490482336795225e-11   9.2087026458007531e-11   6.3429086471533594e-11   6.1139922338567624e-11   3.8215633739637708e-11   3.6861661052567268e-11   2.0819053571292715e-11   2.0185235074565462e-11   1.1907879235238440e-11   1.1751504237394290e-11   1.1824556358283444e-11   1.1884567733714795e-11   2.0572282915152904e-11   2.0579309138102269e-11   3.7814886387490418e-11   3.7501593066613981e-11   6.2889742786668287e-11   6.2001105898827770e-11   9.4833241137494337e-11   9.3136347179461609e-11   1.3241781434870875e-10   1.2971081082956713e-10   1.7419911634131236e-10   1.7031896877331829e-10   2.1857151537735336e-10   2.1340027249929807e-10   2.6382986630190823e-10   2.5729919668570720e-10   3.0823467557415353e-10   3.0032847443575867e-10   3.5008082791713406e-10   3.4083599899880323e-10   3.8775378850760070e-10   3.7725775675671668e-10   4.1983643499511287e-10   4.0823078574663527e-10   4.4495989627074006e-10   4.3238981877574914e-10   4.6272232404515889e-10   4.4961252963782193e-10   4.7052802728671973e-10   4.5567660552055339e-10   4.5939255954455770e-10   4.3797625754839244e-10   4.4954602392160323e-10   4.2706965733045861e-10   4.3379672972802726e-10   4.1186367869990805e-10   4.1052621465767143e-10   3.8930055459822130e-10   3.8084392566896749e-10   3.6075849934351409e-10   3.4587453863005565e-10   3.2727466713810456e-10   3.0696289375300968e-10   2.9014159235008768e-10   2.6560425169723927e-10   2.5078579043388015e-10   2.2338796818402810e-10   2.1071969521037541e-10   1.8193636621836294e-10   1.7148300408504088e-10   1.4284238897327563e-10   1.3458354545311241e-10   1.0760838156722770e-10   1.0143933154929119e-10   7.7588355398292739e-11   7.3324064672558421e-11   5.3935953509608831e-11   5.1318189199716198e-11   3.7560116363893721e-11   3.6267370528577170e-11   2.9090151611460239e-11   2.8749996554270753e-11   2.8851550112219961e-11   2.9054950547600122e-11   3.6853477542698567e-11   3.7170509590697187e-11   5.2788422257216555e-11   5.2784795186605477e-11   7.6044012916199779e-11   7.5297758714771148e-11   1.0572655181788889e-10   1.0384424122443054e-10   1.4069535907628263e-10   1.3732722090840825e-10   1.7960661093936317e-10   1.7445997379184381e-10   2.2096496967823366e-10   2.1381550879243826e-10   2.6318112299847046e-10   2.5388148514514787e-10   3.0463246480253770e-10   2.9311790350779589e-10   3.4372755900282514e-10   3.3001860083883810e-10   3.7895651493047980e-10   3.6315700901914953e-10   4.0900287593815415e-10   3.9130307078830448e-10   4.3253428307507587e-10   4.1316071425665908e-10   4.4946170840859310e-10   4.2891861133775331e-10   4.5555556390348475e-10   4.3322699015868017e-10   4.3846827414882350e-10   4.0910901058116079e-10   4.2883504300216029e-10   3.9815582506602443e-10   4.1532007704793158e-10   3.8495068833606144e-10   3.9482764833250164e-10   3.6516266742965299e-10   3.6864382586938870e-10   3.4029824585197131e-10   3.3771822358017436e-10   3.1120349100188752e-10   3.0324457077083273e-10   2.7901078479196308e-10   2.6654724213118715e-10   2.4495568799957844e-10   2.2903650097035308e-10   2.1034706733015187e-10   1.9215384387356883e-10   1.7651488994203554e-10   1.5731663483254047e-10   1.4475929758443299e-10   1.2586363498889647e-10   1.1630062949688552e-10   9.9003554331719605e-11   9.2232526969255395e-11   7.7768601286547688e-11   7.3479905421082098e-11   6.2974815308303860e-11   6.0763410479652746e-11   5.5190706842184608e-11   5.4571724009874945e-11   5.4715409766886150e-11   5.5142784393346690e-11   6.1567185888881201e-11   6.2454642760893259e-11   7.5482723243466482e-11   7.6226306575606843e-11   9.5927255157280390e-11   9.5928538144239019e-11   1.2211511129182339e-10   1.2080419316707156e-10   1.5303991039709690e-10   1.4989731722789926e-10   1.8751323781948564e-10   1.8208988535825044e-10   2.2421030208741508e-10   2.1614475332568074e-10   2.6172092734576809e-10   2.5075328321049172e-10   2.9860330524165867e-10   2.8458517623211226e-10   3.3344178048007501e-10   3.1634209530050721e-10   3.6488882622066640e-10   3.4479423653893350e-10   3.9178030623129927e-10   3.6889705973753205e-10   4.1286463310817655e-10   3.8747707253917530e-10   4.2837306471447881e-10   4.0104267754370965e-10   4.3293909446396588e-10   4.0319357347063200e-10   4.0991228046155986e-10   3.7365624945980616e-10   4.0092666603114041e-10   3.6299839845158365e-10   3.9019705707474410e-10   3.5221879750096472e-10   3.7332853961985499e-10   3.3588888123804426e-10   3.5169975243340293e-10   3.1557896704644815e-10   3.2603749398463146e-10   2.9192183961699262e-10   2.9734104673360170e-10   2.6584897298500680e-10   2.6671181747646695e-10   2.3835921996181153e-10   2.3532698926532050e-10   2.1050938065707884e-10   2.0439264318572623e-10   1.8336966038962486e-10   1.7509755821121777e-10   1.5798301982609344e-10   1.4856751741554511e-10   1.3532504493246444e-10   1.2582204582496382e-10   1.1626646119325883e-10   1.0773523071554803e-10   1.0153967207423748e-10   9.5002130959364588e-11   9.1710613395470525e-11   8.8112066327644596e-11   8.7157004863643899e-11   8.7329813252565666e-11   8.8053834618212946e-11   9.2685429690812234e-11   9.4366634633224584e-11   1.0397310011814885e-10   1.0585280541151303e-10   1.2075904503557809e-10   1.2207093906273067e-10   1.4239819112285133e-10   1.4239778257168015e-10   1.6805896088900911e-10   1.6605218885796174e-10   1.9675523259720650e-10   1.9212513849335855e-10   2.2738422203734681e-10   2.1961465853206373e-10   2.5876894760793760e-10   2.4746441232972735e-10   2.8970298877288746e-10   2.7460381880929137e-10   3.1899942331314594e-10   2.9999181367471876e-10   3.4552275758305647e-10   3.2264271677401340e-10   3.6830368102347390e-10   3.4173888392674354e-10   3.8621500518686849e-10   3.5627445208015081e-10   3.9980642287766702e-10   3.6706366708419484e-10   4.0264420755242784e-10   3.6692686367716768e-10   3.7482790093865498e-10   3.3298080320124953e-10   3.6692921525819472e-10   3.2294556301016053e-10   3.5948008760740497e-10   3.1491887738279998e-10   3.4696243930914120e-10   3.0260020253983277e-10   3.3078166079640073e-10   2.8756190513927803e-10   3.1141752281300760e-10   2.7020304354803527e-10   2.8963495604592145e-10   2.5121902056787331e-10   2.6626830720691146e-10   2.3133501791705039e-10   2.4221585955933554e-10   2.1131580260303260e-10   2.1840189654041909e-10   1.9193061149419911e-10   1.9574156997586018e-10   1.7392441087678475e-10   1.7510569482038086e-10   1.5798916124646422e-10   1.5728728805424246e-10   1.4473723881563984e-10   1.4297109357476270e-10   1.3467790124068034e-10   1.3270726805332314e-10   1.2819771748424836e-10   1.2689023883029338e-10   1.2554571233001149e-10   1.2574354638225757e-10   1.2682379661774140e-10   1.2931125387772032e-10   1.3198285096644849e-10   1.3745625395970243e-10   1.4082461350093999e-10   1.4986553782250877e-10   1.5300929903537775e-10   1.6606222418520642e-10   1.6806865699369959e-10   1.8542388536315243e-10   1.8542396574948809e-10   2.0720646960917142e-10   2.0440827509663045e-10   2.3057287981857915e-10   2.2429202241767141e-10   2.5462523039550610e-10   2.4431115367895760e-10   2.7843886161044580e-10   2.6369600590851508e-10   3.0110057483423280e-10   2.8170355161367807e-10   3.2172919129129712e-10   2.9763140882410021e-10   3.3958601612276450e-10   3.1092263066079337e-10   3.5370775054229647e-10   3.2077850285265501e-10   3.6494225692983005e-10   3.2829672191983338e-10   3.6605559667216732e-10   3.2577871715135595e-10   3.3456380672353030e-10   2.8864606355948919e-10   3.2814596695725503e-10   2.7953656200839683e-10   3.2433896643385181e-10   2.7448495050261401e-10   3.1672366123575571e-10   2.6657638794110834e-10   3.0667035779520047e-10   2.5732174740020379e-10   2.9439304414682050e-10   2.4687502645297650e-10   2.8039015972086448e-10   2.3567063789645502e-10   2.6519588972797428e-10   2.2413390012562936e-10   2.4939467932614772e-10   2.1270898053027451e-10   2.3359368878824483e-10   2.0183480327449901e-10   2.1840014197682362e-10   1.9192926886387346e-10   2.0439791066406125e-10   1.8337303325221217e-10   1.9212508579007250e-10   1.7649490218059341e-10   1.8205329848954171e-10   1.7155919271639158e-10   1.7456959584321750e-10   1.6875557619539040e-10   1.6996156701123346e-10   1.6819178935212542e-10   1.6840629145015115e-10   1.6988949416042033e-10   1.6996353394380547e-10   1.7378344545933894e-10   1.7457344797495997e-10   1.7972399836380920e-10   1.8205887569288284e-10   1.8748285909763620e-10   1.9213215617684746e-10   1.9676185831968295e-10   2.0440617983353790e-10   2.0720440930057001e-10   2.1840926746773480e-10   2.1840921370743211e-10   2.3360328186579286e-10   2.2994566929209745e-10   2.4940439553545352e-10   2.4137049976657632e-10   2.6520503157233241e-10   2.5224431866790174e-10   2.8039996209182201e-10   2.6215115421871648e-10   2.9439461487714826e-10   2.7069991451597303e-10   3.0670763214716964e-10   2.7761784234892407e-10   3.1657250315035654e-10   2.8234469190643447e-10   3.2510560759510473e-10   2.8622751263464534e-10   3.2452903928933215e-10   2.8133844070765845e-10   2.9066758330944925e-10   2.4235594006544833e-10   2.8606738980501604e-10   2.3443953524598316e-10   2.8612512458881474e-10   2.3247080135014978e-10   2.8377686104160015e-10   2.2920172371925467e-10   2.8029654136250290e-10   2.2602086659738457e-10   2.7562344716834574e-10   2.2283543143940481e-10   2.6996823306451560e-10   2.1980377209381659e-10   2.6354341558819460e-10   2.1703649288797198e-10   2.5659660869262255e-10   2.1464087936851506e-10   2.4939466928873812e-10   2.1270883890478969e-10   2.4221437072437536e-10   2.1131463608774135e-10   2.3533164017272515e-10   2.1051184032468215e-10   2.2901097101094767e-10   2.1033129762512606e-10   2.2349525701799743e-10   2.1077994090201498e-10   2.1899645844742998e-10   2.1184052423800114e-10   2.1568745662789061e-10   2.1347228563824443e-10   2.1369541032956369e-10   2.1561251356388172e-10   2.1309686920921744e-10   2.1817895695545521e-10   2.1391483213387679e-10   2.2107298614513925e-10   2.1611786342841740e-10   2.2418338317754521e-10   2.1962130108693062e-10   2.2739061594625931e-10   2.2429051002017349e-10   2.3057143143650858e-10   2.2994605851180322e-10   2.3360359445164526e-10   2.3637059936827805e-10   2.3637057184975151e-10   2.4331730734813491e-10   2.3876608870126228e-10   2.5051887900586937e-10   2.4069776278338155e-10   2.5770052348390720e-10   2.4209319323402166e-10   2.6457560409174291e-10   2.4288867244662649e-10   2.7093697735212867e-10   2.4310826787252010e-10   2.7624032225099709e-10   2.4245240451393274e-10   2.8183005544820976e-10   2.4247401705548322e-10   2.7967092035599883e-10   2.3531222288549787e-10   2.4482628901691589e-10   1.9588944226836749e-10   2.4231049328514566e-10   1.8938752041312669e-10   2.4630699997905731e-10   1.9049101143690222e-10   2.4938783825134721e-10   1.9191249306638034e-10   2.5267310422210487e-10   1.9486209968806273e-10   2.5582911452294914e-10   1.9900790959736520e-10   2.5876851235457159e-10   2.0422775297419201e-10   2.6137292647835094e-10   2.1031481143080457e-10   2.6354310093361204e-10   2.1703617877496423e-10   2.6519550746766574e-10   2.2413338575444775e-10   2.6626665678055051e-10   2.3133371103571727e-10   2.6671537711102154e-10   2.3836044052790324e-10   2.6652441891632368e-10   2.4494353636683109e-10   2.6570111510793826e-10   2.5083000890705861e-10   2.6427709968762982e-10   2.5579363982049455e-10   2.6230709212985143e-10   2.5964367544811267e-10   2.5986679461852394e-10   2.6223215739528429e-10   2.5704998291983162e-10   2.6345960851129659e-10   2.5396490269920809e-10   2.6327885576489517e-10   2.5073010976572373e-10   2.6169684309612346e-10   2.4746991417250941e-10   2.5877436463651159e-10   2.4430960279675781e-10   2.5462372813951743e-10   2.4137062694973001e-10   2.4940444104877089e-10   2.3876592166464547e-10   2.4331706866397791e-10   2.3659564580982789e-10   2.3659559828028839e-10   2.3494287099995107e-10   2.2949803077127297e-10   2.3387299787035523e-10   2.2229883313505118e-10   2.3341680643494261e-10   2.1526517923215756e-10   2.3364769357870191e-10   2.0871917379903221e-10   2.3426036684576678e-10   2.0263408283077184e-10   2.3677817609020639e-10   1.9871732278338099e-10   2.3320279919063970e-10   1.8946900536311268e-10   1.9880168522889601e-10   1.5103233734605441e-10   1.9855681358789280e-10   1.4611183075081771e-10   2.0641478288819154e-10   1.5015884308068355e-10   2.1487816111716647e-10   1.5614169547353013e-10   2.2486167310186002e-10   1.6504285982559081e-10   2.3577087355411168e-10   1.7630815810111913e-10   2.4722160261439893e-10   1.8954122133518020e-10   2.5876810059728772e-10   2.0422729190134960e-10   2.6996754088941448e-10   2.1980302556748474e-10   2.8038939048706067e-10   2.3566967795286229e-10   2.8963315834982785e-10   2.5121752438610369e-10   2.9734360317601341e-10   2.6584905996541482e-10   3.0322441189698272e-10   2.7900199866434649e-10   3.0704958322321744e-10   2.9017087570762077e-10   3.0867211326619717e-10   2.9892647321948467e-10   3.0802964481109965e-10   3.0493231466244840e-10   3.0514686371483597e-10   3.0795759545276597e-10   3.0013455028495284e-10   3.0788605264177979e-10   2.9318532210343979e-10   3.0472043283998113e-10   2.8456623189425905e-10   2.9858238667160804e-10   2.7460850495420160e-10   2.8970779387077198e-10   2.6369481013088016e-10   2.7843769831354852e-10   2.5224455616081654e-10   2.6520520367247660e-10   2.4069776189605834e-10   2.5051881885357937e-10   2.2949821992417358e-10   2.3494298024277333e-10   2.1907601600870564e-10   2.1907598794098489e-10   2.0983342545433996e-10   2.0352914622684247e-10   2.0211592977527967e-10   1.8889129446356038e-10   1.9627301309297416e-10   1.7577233684833310e-10   1.9224606584181603e-10   1.6442006660831678e-10   1.9168138312536954e-10   1.5663906266195126e-10   1.8691077304266694e-10   1.4557041715857248e-10   1.5436255719266752e-10   1.0950853229811698e-10   1.5648776917153120e-10   1.0627551769898425e-10   1.6798151060171688e-10   1.1302424312020709e-10   1.8157401003507551e-10   1.2326398162514970e-10   1.9793101297050914e-10   1.3770908194167429e-10   2.1621952779203295e-10   1.5560851117288428e-10   2.3577120912536188e-10   1.7630856121520683e-10   2.5582899091848350e-10   1.9900785154613496e-10   2.7562297774842586e-10   2.2283505388577052e-10   2.9439234712355265e-10   2.4687432842347673e-10   3.1141581894455041e-10   2.7020188119027729e-10   3.2603918212314439e-10   2.9192123760750126e-10   3.3770046441564936e-10   3.1119773092442618e-10   3.4595152455553151e-10   3.2729057188161981e-10   3.5047527463982722e-10   3.3958131775324280e-10   3.5109786557551640e-10   3.4759763855167851e-10   3.4779536802148001e-10   3.5103146838886921e-10   3.4069469199893923e-10   3.4975084424498360e-10   3.3006870984406872e-10   3.4380497722172159e-10   3.1632576992202805e-10   3.3342236138616491e-10   2.9999400413551134e-10   3.1900199292836594e-10   2.8170103193950600e-10   3.0109803677505816e-10   2.6214984310027741e-10   2.8039853187944922e-10   2.4209177164162984e-10   2.5769894127016487e-10   2.2229768709865958e-10   2.3387163761068715e-10   2.0352799204100487e-10   2.0983205800661990e-10   1.8650557271931503e-10   1.8650536804355419e-10   1.7187580205337323e-10   1.6478049426593767e-10   1.6024918769093899e-10   1.4553384197980565e-10   1.5181197503510526e-10   1.2927886654015791e-10   1.4827270843490929e-10   1.1785626279443726e-10   1.4257367705205218e-10   1.0530342069358735e-10   1.1321674899759748e-10   7.2913827604551932e-11   1.1772004053667290e-10   7.1409460075076244e-11   1.3248415599333382e-10   8.0514277797763855e-11   1.5075524350505289e-10   9.4542823828622943e-11   1.7291605318715486e-10   1.1391118755082535e-10   1.9792642508597225e-10   1.3770444381997798e-10   2.2485736733567922e-10   1.6503829589613639e-10   2.5266855181019509e-10   1.9485707152122864e-10   2.8029208484430378e-10   2.2601574780993247e-10   3.0666626266248452e-10   2.5731675455344274e-10   3.3077755662518779e-10   2.8755723180466227e-10   3.5169937482656260e-10   3.1557504564690395e-10   3.6862769932190886e-10   3.4029348343657067e-10   3.8091197979177001e-10   3.6076262540057065e-10   3.8808013439295050e-10   3.7619585040617910e-10   3.8985669149551905e-10   3.8600006514780843e-10   3.8617337589667041e-10   3.8979849635817406e-10   3.7717173259959003e-10   3.8744516994664823e-10   3.6319768733931741e-10   3.7903052068144584e-10   3.4478825289139155e-10   3.6487791682920100e-10   3.2265089206977707e-10   3.4553123334903566e-10   2.9763633021124761e-10   3.2173395095385769e-10   2.7070586379972921e-10   2.9440058583522190e-10   2.4289440964290259e-10   2.6458153809029248e-10   2.1527078797092500e-10   2.3342276993465898e-10   1.8889632680392544e-10   2.0212150576634986e-10   1.6478593858345223e-10   1.7188173493552792e-10   1.4385855275463824e-10   1.4385936066397659e-10   1.2696060595236628e-10   1.1916574983257991e-10   1.1451196025198471e-10   9.8560945032720722e-11   1.0822032806963073e-10   8.3859328831644643e-11   1.0189533531679568e-10   7.0215423231318621e-11   7.6945534629185779e-11   4.2654591746481431e-11   8.3743441315948513e-11   4.2853533508049650e-11   1.0128686665457801e-10   5.3878290976348633e-11   1.2360620943951449e-10   7.1081960795520232e-11   1.5077810426402510e-10   9.4563716768316198e-11   1.8159455797143833e-10   1.2328399885801900e-10   2.1489948826778387e-10   1.5616353420938525e-10   2.4940823454180260e-10   1.9193446201552001e-10   2.8379542739517796e-10   2.2922287211278389e-10   3.1673945269782156e-10   2.6659565570471148e-10   3.4697430478195244e-10   3.0261661462513571e-10   3.7333806741952174e-10   3.3590147516461996e-10   3.9481759222381490e-10   3.6517111536572120e-10   4.1058742930230893e-10   3.8930071575251874e-10   4.200415