<?xml version="1.0"?>
<VTKFile type="UnstructuredGrid"  version="0.1"  >
<UnstructuredGrid>
<Piece  NumberOfPoints="4225" NumberOfCells="8192">
<Points>
<DataArray  type="Float64"  NumberOfComponents="3"  format="ascii">0 0 0  0.015625 0 0  0.03125 0 0  0.046875 0 0  0.0625 0 0  0.078125 0 0  0.09375 0 0  0.109375 0 0  0.125 0 0  0.140625 0 0  0.15625 0 0  0.171875 0 0  0.1875 0 0  0.203125 0 0  0.21875 0 0  0.234375 0 0  0.25 0 0  0.265625 0 0  0.28125 0 0  0.296875 0 0  0.3125 0 0  0.328125 0 0  0.34375 0 0  0.359375 0 0  0.375 0 0  0.390625 0 0  0.40625 0 0  0.421875 0 0  0.4375 0 0  0.453125 0 0  0.46875 0 0  0.484375 0 0  0.5 0 0  0.515625 0 0  0.53125 0 0  0.546875 0 0  0.5625 0 0  0.578125 0 0  0.59375 0 0  0.609375 0 0  0.625 0 0  0.640625 0 0  0.65625 0 0  0.671875 0 0  0.6875 0 0  0.703125 0 0  0.71875 0 0  0.734375 0 0  0.75 0 0  0.765625 0 0  0.78125 0 0  0.796875 0 0  0.8125 0 0  0.828125 0 0  0.84375 0 0  0.859375 0 0  0.875 0 0  0.890625 0 0  0.90625 0 0  0.921875 0 0  0.9375 0 0  0.953125 0 0  0.96875 0 0  0.984375 0 0  1 0 0  0 0.015625 0  0.015625 0.015625 0  0.03125 0.015625 0  0.046875 0.015625 0  0.0625 0.015625 0  0.078125 0.015625 0  0.09375 0.015625 0  0.109375 0.015625 0  0.125 0.015625 0  0.140625 0.015625 0  0.15625 0.015625 0  0.171875 0.015625 0  0.1875 0.015625 0  0.203125 0.015625 0  0.21875 0.015625 0  0.234375 0.015625 0  0.25 0.015625 0  0.265625 0.015625 0  0.28125 0.015625 0  0.296875 0.015625 0  0.3125 0.015625 0  0.328125 0.015625 0  0.34375 0.015625 0  0.359375 0.015625 0  0.375 0.015625 0  0.390625 0.015625 0  0.40625 0.015625 0  0.421875 0.015625 0  0.4375 0.015625 0  0.453125 0.015625 0  0.46875 0.015625 0  0.484375 0.015625 0  0.5 0.015625 0  0.515625 0.015625 0  0.53125 0.015625 0  0.546875 0.015625 0  0.5625 0.015625 0  0.578125 0.015625 0  0.59375 0.015625 0  0.609375 0.015625 0  0.625 0.015625 0  0.640625 0.015625 0  0.65625 0.015625 0  0.671875 0.015625 0  0.6875 0.015625 0  0.703125 0.015625 0  0.71875 0.015625 0  0.734375 0.015625 0  0.75 0.015625 0  0.765625 0.015625 0  0.78125 0.015625 0  0.796875 0.015625 0  0.8125 0.015625 0  0.828125 0.015625 0  0.84375 0.015625 0  0.859375 0.015625 0  0.875 0.015625 0  0.890625 0.015625 0  0.90625 0.015625 0  0.921875 0.015625 0  0.9375 0.015625 0  0.953125 0.015625 0  0.96875 0.015625 0  0.984375 0.015625 0  1 0.015625 0  0 0.03125 0  0.015625 0.03125 0  0.03125 0.03125 0  0.046875 0.03125 0  0.0625 0.03125 0  0.078125 0.03125 0  0.09375 0.03125 0  0.109375 0.03125 0  0.125 0.03125 0  0.140625 0.03125 0  0.15625 0.03125 0  0.171875 0.03125 0  0.1875 0.03125 0  0.203125 0.03125 0  0.21875 0.03125 0  0.234375 0.03125 0  0.25 0.03125 0  0.265625 0.03125 0  0.28125 0.03125 0  0.296875 0.03125 0  0.3125 0.03125 0  0.328125 0.03125 0  0.34375 0.03125 0  0.359375 0.03125 0  0.375 0.03125 0  0.390625 0.03125 0  0.40625 0.03125 0  0.421875 0.03125 0  0.4375 0.03125 0  0.453125 0.03125 0  0.46875 0.03125 0  0.484375 0.03125 0  0.5 0.03125 0  0.515625 0.03125 0  0.53125 0.03125 0  0.546875 0.03125 0  0.5625 0.03125 0  0.578125 0.03125 0  0.59375 0.03125 0  0.609375 0.03125 0  0.625 0.03125 0  0.640625 0.03125 0  0.65625 0.03125 0  0.671875 0.03125 0  0.6875 0.03125 0  0.703125 0.03125 0  0.71875 0.03125 0  0.734375 0.03125 0  0.75 0.03125 0  0.765625 0.03125 0  0.78125 0.03125 0  0.796875 0.03125 0  0.8125 0.03125 0  0.828125 0.03125 0  0.84375 0.03125 0  0.859375 0.03125 0  0.875 0.03125 0  0.890625 0.03125 0  0.90625 0.03125 0  0.921875 0.03125 0  0.9375 0.03125 0  0.953125 0.03125 0  0.96875 0.03125 0  0.984375 0.03125 0  1 0.03125 0  0 0.046875 0  0.015625 0.046875 0  0.03125 0.046875 0  0.046875 0.046875 0  0.0625 0.046875 0  0.078125 0.046875 0  0.09375 0.046875 0  0.109375 0.046875 0  0.125 0.046875 0  0.140625 0.046875 0  0.15625 0.046875 0  0.171875 0.046875 0  0.1875 0.046875 0  0.203125 0.046875 0  0.21875 0.046875 0  0.234375 0.046875 0  0.25 0.046875 0  0.265625 0.046875 0  0.28125 0.046875 0  0.296875 0.046875 0  0.3125 0.046875 0  0.328125 0.046875 0  0.34375 0.046875 0  0.359375 0.046875 0  0.375 0.046875 0  0.390625 0.046875 0  0.40625 0.046875 0  0.421875 0.046875 0  0.4375 0.046875 0  0.453125 0.046875 0  0.46875 0.046875 0  0.484375 0.046875 0  0.5 0.046875 0  0.515625 0.046875 0  0.53125 0.046875 0  0.546875 0.046875 0  0.5625 0.046875 0  0.578125 0.046875 0  0.59375 0.046875 0  0.609375 0.046875 0  0.625 0.046875 0  0.640625 0.046875 0  0.65625 0.046875 0  0.671875 0.046875 0  0.6875 0.046875 0  0.703125 0.046875 0  0.71875 0.046875 0  0.734375 0.046875 0  0.75 0.046875 0  0.765625 0.046875 0  0.78125 0.046875 0  0.796875 0.046875 0  0.8125 0.046875 0  0.828125 0.046875 0  0.84375 0.046875 0  0.859375 0.046875 0  0.875 0.046875 0  0.890625 0.046875 0  0.90625 0.046875 0  0.921875 0.046875 0  0.9375 0.046875 0  0.953125 0.046875 0  0.96875 0.046875 0  0.984375 0.046875 0  1 0.046875 0  0 0.0625 0  0.015625 0.0625 0  0.03125 0.0625 0  0.046875 0.0625 0  0.0625 0.0625 0  0.078125 0.0625 0  0.09375 0.0625 0  0.109375 0.0625 0  0.125 0.0625 0  0.140625 0.0625 0  0.15625 0.0625 0  0.171875 0.0625 0  0.1875 0.0625 0  0.203125 0.0625 0  0.21875 0.0625 0  0.234375 0.0625 0  0.25 0.0625 0  0.265625 0.0625 0  0.28125 0.0625 0  0.296875 0.0625 0  0.3125 0.0625 0  0.328125 0.0625 0  0.34375 0.0625 0  0.359375 0.0625 0  0.375 0.0625 0  0.390625 0.0625 0  0.40625 0.0625 0  0.421875 0.0625 0  0.4375 0.0625 0  0.453125 0.0625 0  0.46875 0.0625 0  0.484375 0.0625 0  0.5 0.0625 0  0.515625 0.0625 0  0.53125 0.0625 0  0.546875 0.0625 0  0.5625 0.0625 0  0.578125 0.0625 0  0.59375 0.0625 0  0.609375 0.0625 0  0.625 0.0625 0  0.640625 0.0625 0  0.65625 0.0625 0  0.671875 0.0625 0  0.6875 0.0625 0  0.703125 0.0625 0  0.71875 0.0625 0  0.734375 0.0625 0  0.75 0.0625 0  0.765625 0.0625 0  0.78125 0.0625 0  0.796875 0.0625 0  0.8125 0.0625 0  0.828125 0.0625 0  0.84375 0.0625 0  0.859375 0.0625 0  0.875 0.0625 0  0.890625 0.0625 0  0.90625 0.0625 0  0.921875 0.0625 0  0.9375 0.0625 0  0.953125 0.0625 0  0.96875 0.0625 0  0.984375 0.0625 0  1 0.0625 0  0 0.078125 0  0.015625 0.078125 0  0.03125 0.078125 0  0.046875 0.078125 0  0.0625 0.078125 0  0.078125 0.078125 0  0.09375 0.078125 0  0.109375 0.078125 0  0.125 0.078125 0  0.140625 0.078125 0  0.15625 0.078125 0  0.171875 0.078125 0  0.1875 0.078125 0  0.203125 0.078125 0  0.21875 0.078125 0  0.234375 0.078125 0  0.25 0.078125 0  0.265625 0.078125 0  0.28125 0.078125 0  0.296875 0.078125 0  0.3125 0.078125 0  0.328125 0.078125 0  0.34375 0.078125 0  0.359375 0.078125 0  0.375 0.078125 0  0.390625 0.078125 0  0.40625 0.078125 0  0.421875 0.078125 0  0.4375 0.078125 0  0.453125 0.078125 0  0.46875 0.078125 0  0.484375 0.078125 0  0.5 0.078125 0  0.515625 0.078125 0  0.53125 0.078125 0  0.546875 0.078125 0  0.5625 0.078125 0  0.578125 0.078125 0  0.59375 0.078125 0  0.609375 0.078125 0  0.625 0.078125 0  0.640625 0.078125 0  0.65625 0.078125 0  0.671875 0.078125 0  0.6875 0.078125 0  0.703125 0.078125 0  0.71875 0.078125 0  0.734375 0.078125 0  0.75 0.078125 0  0.765625 0.078125 0  0.78125 0.078125 0  0.796875 0.078125 0  0.8125 0.078125 0  0.828125 0.078125 0  0.84375 0.078125 0  0.859375 0.078125 0  0.875 0.078125 0  0.890625 0.078125 0  0.90625 0.078125 0  0.921875 0.078125 0  0.9375 0.078125 0  0.953125 0.078125 0  0.96875 0.078125 0  0.984375 0.078125 0  1 0.078125 0  0 0.09375 0  0.015625 0.09375 0  0.03125 0.09375 0  0.046875 0.09375 0  0.0625 0.09375 0  0.078125 0.09375 0  0.09375 0.09375 0  0.109375 0.09375 0  0.125 0.09375 0  0.140625 0.09375 0  0.15625 0.09375 0  0.171875 0.09375 0  0.1875 0.09375 0  0.203125 0.09375 0  0.21875 0.09375 0  0.234375 0.09375 0  0.25 0.09375 0  0.265625 0.09375 0  0.28125 0.09375 0  0.296875 0.09375 0  0.3125 0.09375 0  0.328125 0.09375 0  0.34375 0.09375 0  0.359375 0.09375 0  0.375 0.09375 0  0.390625 0.09375 0  0.40625 0.09375 0  0.421875 0.09375 0  0.4375 0.09375 0  0.453125 0.09375 0  0.46875 0.09375 0  0.484375 0.09375 0  0.5 0.09375 0  0.515625 0.09375 0  0.53125 0.09375 0  0.546875 0.09375 0  0.5625 0.09375 0  0.578125 0.09375 0  0.59375 0.09375 0  0.609375 0.09375 0  0.625 0.09375 0  0.640625 0.09375 0  0.65625 0.09375 0  0.671875 0.09375 0  0.6875 0.09375 0  0.703125 0.09375 0  0.71875 0.09375 0  0.734375 0.09375 0  0.75 0.09375 0  0.765625 0.09375 0  0.78125 0.09375 0  0.796875 0.09375 0  0.8125 0.09375 0  0.828125 0.09375 0  0.84375 0.09375 0  0.859375 0.09375 0  0.875 0.09375 0  0.890625 0.09375 0  0.90625 0.09375 0  0.921875 0.09375 0  0.9375 0.09375 0  0.953125 0.09375 0  0.96875 0.09375 0  0.984375 0.09375 0  1 0.09375 0  0 0.109375 0  0.015625 0.109375 0  0.03125 0.109375 0  0.046875 0.109375 0  0.0625 0.109375 0  0.078125 0.109375 0  0.09375 0.109375 0  0.109375 0.109375 0  0.125 0.109375 0  0.140625 0.109375 0  0.15625 0.109375 0  0.171875 0.109375 0  0.1875 0.109375 0  0.203125 0.109375 0  0.21875 0.109375 0  0.234375 0.109375 0  0.25 0.109375 0  0.265625 0.109375 0  0.28125 0.109375 0  0.296875 0.109375 0  0.3125 0.109375 0  0.328125 0.109375 0  0.34375 0.109375 0  0.359375 0.109375 0  0.375 0.109375 0  0.390625 0.109375 0  0.40625 0.109375 0  0.421875 0.109375 0  0.4375 0.109375 0  0.453125 0.109375 0  0.46875 0.109375 0  0.484375 0.109375 0  0.5 0.109375 0  0.515625 0.109375 0  0.53125 0.109375 0  0.546875 0.109375 0  0.5625 0.109375 0  0.578125 0.109375 0  0.59375 0.109375 0  0.609375 0.109375 0  0.625 0.109375 0  0.640625 0.109375 0  0.65625 0.109375 0  0.671875 0.109375 0  0.6875 0.109375 0  0.703125 0.109375 0  0.71875 0.109375 0  0.734375 0.109375 0  0.75 0.109375 0  0.765625 0.109375 0  0.78125 0.109375 0  0.796875 0.109375 0  0.8125 0.109375 0  0.828125 0.109375 0  0.84375 0.109375 0  0.859375 0.109375 0  0.875 0.109375 0  0.890625 0.109375 0  0.90625 0.109375 0  0.921875 0.109375 0  0.9375 0.109375 0  0.953125 0.109375 0  0.96875 0.109375 0  0.984375 0.109375 0  1 0.109375 0  0 0.125 0  0.015625 0.125 0  0.03125 0.125 0  0.046875 0.125 0  0.0625 0.125 0  0.078125 0.125 0  0.09375 0.125 0  0.109375 0.125 0  0.125 0.12
[...]
<CellData  Scalars="f_176373"> 
<DataArray  type="Float64"  Name="f_176373"  format="ascii">1.8002250392121593e-14   1.9490878941698604e-14   5.1168311296419224e-14   7.6672265764835098e-14   1.0075172073919693e-13   1.7150858579075800e-13   1.6677047226511562e-13   3.0414038703337540e-13   2.4872345746611166e-13   4.7371063683794186e-13   3.4584077635260672e-13   6.7868268810044450e-13   4.5718988355289357e-13   9.1709742082146112e-13   5.8169919634193074e-13   1.1866617302379992e-12   7.1816999337600951e-13   1.4847805412815191e-12   8.6528819148569608e-13   1.8085831249955011e-12   1.0216370785459678e-12   2.1549510825081173e-12   1.1857109954316149e-12   2.5205485359152396e-12   1.3559298572223027e-12   2.9018543422921334e-12   1.5306543819938071e-12   3.2951960540059881e-12   1.7082018853663357e-12   3.6967853151865689e-12   1.8868624898907076e-12   4.1027543625577756e-12   2.0649155947267122e-12   4.5091932829858742e-12   2.2406464484264069e-12   4.9121876731055643e-12   2.4123626633553378e-12   5.3078563391487037e-12   2.5784105156479687e-12   5.6923886740760863e-12   2.7371908719154343e-12   6.0620813552033868e-12   2.8871745897488516e-12   6.4133740065171586e-12   3.0269172451210890e-12   6.7428834840329404e-12   3.1550730424493055e-12   7.0474364548856228e-12   3.2704077756808645e-12   7.3240999539927251e-12   3.3718107145108659e-12   7.5702096268059486e-12   3.4583053008555699e-12   7.7833953853946011e-12   3.5290585541231576e-12   7.9616042295307464e-12   3.5833890927061738e-12   8.1031200155364337e-12   3.6207736962472696e-12   8.2065799798916512e-12   3.6408523443982415e-12   8.2709878606854166e-12   3.6434316837582450e-12   8.2957234893578397e-12   3.6284868897635941e-12   8.2805487603996244e-12   3.5961619060116585e-12   8.2256099223377694e-12   3.5467680572160255e-12   8.1314361677367901e-12   3.4807810514710767e-12   7.9989345342275805e-12   3.3988363979172404e-12   7.8293811687458419e-12   3.3017232871636381e-12   7.6244090359345232e-12   3.1903769897622209e-12   7.3859921920866020e-12   3.0658698494241232e-12   7.1164267728480250e-12   2.9294009553101891e-12   6.8183088813957597e-12   2.7822845934029943e-12   6.4945095869406952e-12   2.6259375894742477e-12   6.1481472760117956e-12   2.4618656633693016e-12   5.7825576233200040e-12   2.2916489277251999e-12   5.4012614693419933e-12   2.1169266701447116e-12   5.0079309163468452e-12   1.9393815652772014e-12   4.6063539682404791e-12   1.7607234691264768e-12   4.2003980548577274e-12   1.5826729514127448e-12   3.7939727926344565e-12   1.4069447245617839e-12   3.3909923396509632e-12   1.2352311298213824e-12   2.9953377086673935e-12   1.0691858380068164e-12   2.6108194010204735e-12   9.1040792379875338e-13   2.2411407203951593e-12   7.6042646664489794e-13   1.8898621218728419e-12   6.2068582837640179e-13   1.5603669387837310e-12   4.9253175401435691e-13   1.2558288177922980e-12   3.7719842157666891e-13   9.7918117595263776e-13   2.7579682652422435e-13   7.3308895007062071e-13   1.8930207901370038e-13   5.1992312274594702e-13   1.1855660776640820e-13   3.4173558500714935e-13   6.4286871541349080e-14   2.0025267220363941e-13   2.6691229907176085e-14   9.6854823436788908e-14   6.0369895767742937e-15   3.2234375474664751e-14   4.4464384314388547e-15   8.9381708502966785e-15   1.2136152742561460e-13   1.0016449922817773e-13   2.1748965438980547e-13   2.1595399334495795e-13   3.4776059123514936e-13   3.3792008271994330e-13   5.1422025384096627e-13   4.9178323473092596e-13   7.1592992077792467e-13   6.7713086331234130e-13   9.5099338452252330e-13   8.9204696000816928e-13   1.2171438265912879e-12   1.1343996578824178e-12   1.5118167033102977e-12   1.4018427101370422e-12   1.8321736917411597e-12   1.6917978757624074e-12   2.1751292532543739e-12   2.0014719033755656e-12   2.5373802098442982e-12   2.3278821256361617e-12   2.9154375490978741e-12   2.6678848780764181e-12   3.3056600396187390e-12   3.0182056699916268e-12   3.7042893118106627e-12   3.3754706772386657e-12   4.1074860633519266e-12   3.7362392164630399e-12   4.5113670394061023e-12   4.0970368726653234e-12   4.9120424339664152e-12   4.4543889561079002e-12   5.3056533522011765e-12   4.8048539642195889e-12   5.6884089722297610e-12   5.1450567237928866e-12   6.0566230522371587e-12   5.4717208956353045e-12   6.4067494281150261e-12   5.7817005273075837e-12   6.7354161618940003e-12   6.0720103496588747e-12   7.0394580129428874e-12   6.3398545267554034e-12   7.3159469166264628e-12   6.5826535810168367e-12   7.5622201798864473e-12   6.7980692343117574e-12   7.7759061211728267e-12   6.9840269268486537e-12   7.9549469069244840e-12   7.1387357965501927e-12   8.0976183668121970e-12   7.2607059247325869e-12   8.2025465945732150e-12   7.3487626853946793e-12   8.2687211766710763e-12   7.4020580568010262e-12   8.2955049201742901e-12   7.4200787882911701e-12   8.2826399863057696e-12   7.4026513430946822e-12   8.2302503712578707e-12   7.3499435689864597e-12   8.1388407103484173e-12   7.2624630821069859e-12   8.0092914153999233e-12   7.1410523779560736e-12   7.8428501951469422e-12   6.9868807171887233e-12   7.6411200373126223e-12   6.8014328656630107e-12   7.4060437710199478e-12   6.5864947947295130e-12   7.1398853550201373e-12   6.3441364816267346e-12   6.8452080754181977e-12   6.0766919741663966e-12   6.5248498600569002e-12   5.7867369130587103e-12   6.1818959486135829e-12   5.4770637268220154e-12   5.8196491823786499e-12   5.1506547395650952e-12   5.4415981978155771e-12   4.8106534499593735e-12   5.0513838323026869e-12   4.4603342575926212e-12   4.6527640647533325e-12   4.1030709293952245e-12   4.2495778287118834e-12   3.7423041089204905e-12   3.8457080470324175e-12   3.3815081814326863e-12   3.4450442435785949e-12   3.0241578145921016e-12   3.0514450929717403e-12   2.6736944960609779e-12   2.6687012689842341e-12   2.3334933912295945e-12   2.3004989486753255e-12   2.0068308392712263e-12   1.9503843252581653e-12   1.6968528005267731e-12   1.6217294709198649e-12   1.4065445595396696e-12   1.3176998780423518e-12   1.1387019733724247e-12   1.0412239909779855e-12   8.9590454047740314e-13   7.9496499788259447e-13   6.8049054621983264e-13   5.8129535685536888e-13   4.9453450120252885e-13   4.0227177266465287e-13   3.3982731534648711e-13   2.5962774653265596e-13   2.1785713788163046e-13   1.5475204790183592e-13   1.2980611643741327e-13   8.8426966045580622e-14   7.6543660696748853e-14   6.3831419595721699e-14   5.9146013794326762e-14   6.2243635306363943e-14   8.5630170025456394e-14   3.0937959870044449e-13   2.4727147682308513e-13   4.3653849039321496e-13   4.4021075943105455e-13   5.9021264495854882e-13   5.8878455305308673e-13   7.7408004964146779e-13   7.6914000846142021e-13   9.8707327413002776e-13   9.7909550201176824e-13   1.2270876549574172e-12   1.2156855059036368e-12   1.4917872005377357e-12   1.4764615650859302e-12   1.7786182769644754e-12   1.7588992616573876e-12   2.0848172178409000e-12   2.0602773774057327e-12   2.4074345553101314e-12   2.3776927906742165e-12   2.7433630078301961e-12   2.7080881861028033e-12   3.0893672453624501e-12   3.0482814378883117e-12   3.4421149724315269e-12   3.3949961740950060e-12   3.7982089854255809e-12   3.7448932779353583e-12   4.1542198728733562e-12   4.0946030169334454e-12   4.5067190345938502e-12   4.4407574800996104e-12   4.8523116974161072e-12   4.7800230049291149e-12   5.1876696062783421e-12   5.1091322778498737e-12   5.5095630762679414e-12   5.4249157979227829e-12   5.8148920957125562e-12   5.7243323995729655e-12   6.1007161801582039e-12   6.0044985400580719e-12   6.3642826907772972e-12   6.2627160690215759e-12   6.6030533435826602e-12   6.4964982132518759e-12   6.8147286535984711e-12   6.7035935252432591e-12   6.9972700802695244e-12   6.8820075660035145e-12   7.1489196599009666e-12   7.0300221126510234e-12   7.2682169344366591e-12   7.1462117060365943e-12   7.3540130171158054e-12   7.2294573779074961e-12   7.4054816560913267e-12   7.2789574282535401e-12   7.4221271916253121e-12   7.2942351455147733e-12   7.4037893294537899e-12   7.2751433977145201e-12   7.3506446839098602e-12   7.2218660496196326e-12   7.2632050773034255e-12   7.1349161916648401e-12   7.1423126104009056e-12   7.0151311990420692e-12   6.9891315520040456e-12   6.8636646670963564e-12   6.8051371270421459e-12   6.6819753015062437e-12   6.5921013087634645e-12   6.4718128704961955e-12   6.3520757538807515e-12   6.2352013533127112e-12   6.0873720437138637e-12   5.9744194483064543e-12   5.8005394228321696e-12   5.6919786278644596e-12   5.4943402481507900e-12   5.3905989515629936e-12   5.1717233863359776e-12   5.0731828704709176e-12   4.8357958148997015e-12   4.7427872750886039e-12   4.4897927003024059e-12   4.4025940557156747e-12   4.1370462421664872e-12   4.0558794592066523e-12   3.7809535828623881e-12   3.7059825368832817e-12   3.4249440914515029e-12   3.3562729878059860e-12   3.0724463379386870e-12   3.0101187064179621e-12   2.7268550747355675e-12   2.6708533481982803e-12   2.3914985444904287e-12   2.3417442242162105e-12   2.0696064279826397e-12   2.0259608351156612e-12   1.7642787409936788e-12   1.7265443461807261e-12   1.4784559800288512e-12   1.4463782981596845e-12   1.2148908026888713e-12   1.1881608350981829e-12   9.7612151438784421e-13   9.5437871639290208e-13   7.6444761455557762e-13   7.4728336328299122e-13   5.8190761799701102e-13   5.6886917519694755e-13   4.3025955943192812e-13   4.2085432592993018e-13   3.1096232731666112e-13   3.0466446545873684e-13   2.2517249127311248e-13   2.2141795413480033e-13   1.7370943305798501e-13   1.7192140932728837e-13   1.5729412097131615e-13   1.5667315412504607e-13   1.8275537188679098e-13   1.7735566270939361e-13   1.8553384505202463e-13   2.4793887104839676e-13   5.7956153341018760e-13   4.5818513753649289e-13   7.3539331040589681e-13   7.4588182785507719e-13   9.1611614945571731e-13   9.1831987921294779e-13   1.1246669677710741e-12   1.1244763514611057e-12   1.3591663438150278e-12   1.3586861783954079e-12   1.6171875391877555e-12   1.6166241927086596e-12   1.8962227175165795e-12   1.8955686609548624e-12   2.1935840012295122e-12   2.1928350085220470e-12   2.5064069115152288e-12   2.5055617413328838e-12   2.8316781728499363e-12   2.8307366510345976e-12   3.1662648753189664e-12   3.1652276830498617e-12   3.5069445612480147e-12   3.5058132282531267e-12   3.8504361877203921e-12   3.8492130952338125e-12   4.1934316829872923e-12   4.1921200568215175e-12   4.5326277816719211e-12   4.5312316736490061e-12   4.8647578244542546e-12   4.8632820820079455e-12   5.1866232106717513e-12   5.1850734361503476e-12   5.4951241984061927e-12   5.4935066990026441e-12   5.7872897547346812e-12   5.7856114843814124e-12   6.0603061671574306e-12   6.0585746613933401e-12   6.3115441402701329e-12   6.3097674448577035e-12   6.5385841172592601e-12   6.5367707113762677e-12   6.7392395810217048e-12   6.7373982962982971e-12   6.9115781115988478e-12   6.9097180474253461e-12   7.0539399963437168e-12   7.0520704325500019e-12   7.1649542142099181e-12   7.1630845216608855e-12   7.2435516384959427e-12   7.2416911895465231e-12   7.2889753341889980e-12   7.2871334117623720e-12   7.3007878471300282e-12   7.2989735559930112e-12   7.2788754169882945e-12   7.2770975958988963e-12   7.2234490730945153e-12   7.2217162096703891e-12   7.1350426017145727e-12   7.1333627509034159e-12   7.0145074058484911e-12   7.0128881122792039e-12   6.8630043055131194e-12   6.8614525308561546e-12   6.6819923583558397e-12   6.6805144144724654e-12   6.4732148084843212e-12   6.4718162963036874e-12   6.2386822977396235e-12   6.2373680537433479e-12   5.9806535022659926e-12   5.9794275517256546e-12   5.7016133802309774e-12   5.7004788985045630e-12   5.4042492403597521e-12   5.4032085222541363e-12   5.0914248615950338e-12   5.0904792994172601e-12   4.7661529135455631e-12   4.7653029835103140e-12   4.4315659426552852e-12   4.4308112004278859e-12   4.0908862042183642e-12   4.0902252890319984e-12   3.7473946302276111e-12   3.7468252781226765e-12   3.4043992324262796e-12   3.4039182976603101e-12   3.0652032440430860e-12   3.0648067296561062e-12   2.7330733081535476e-12   2.7327564039220822e-12   2.4112080177936209e-12   2.4109651466235043e-12   2.1027071117863301e-12   2.1025319830026710e-12   1.8105416219131425e-12   1.8104272919541954e-12   1.5375252596112116e-12   1.5374641990754619e-12   1.2862873170212101e-12   1.2862714842894665e-12   1.0592473432885298e-12   1.0592682650809857e-12   8.5859183970976608e-13   8.5864070039801904e-13   6.8625320110555451e-13   6.8632094328713660e-13   5.4389110100029466e-13   5.4396855551082105e-13   4.3287668645791134e-13   4.3295457621880914e-13   3.5427829013279033e-13   3.5434857963851039e-13   3.0885819113301933e-13   3.0890800741071202e-13   2.9703286727052718e-13   2.9706911775541655e-13   3.1986536989870712e-13   3.1896166741200006e-13   3.8912919794960548e-13   3.7714526218373317e-13   3.7218265398663104e-13   4.9285942989602121e-13   9.3083190207093236e-13   7.3165826960048358e-13   1.1125822426015215e-12   1.1311375451048350e-12   1.3196211891972666e-12   1.3235542351205604e-12   1.5524445233180597e-12   1.5526963769830488e-12   1.8080623801353372e-12   1.8080785754760716e-12   2.0837821424510357e-12   2.0838305496052979e-12   2.3769426187216136e-12   2.3770106339483633e-12   2.6847235691874555e-12   2.6848113864577069e-12   3.0041605178736778e-12   3.0042700341824424e-12   3.3321765840990531e-12   3.3323095422004862e-12   3.6656124381594483e-12   3.6657703700574737e-12   4.0012566841846661e-12   4.0014408720876462e-12   4.3358767435393519e-12   4.3360881946602084e-12   4.6662499559460669e-12   4.6664893918119002e-12   4.9891945948570965e-12   4.9894624481882606e-12   5.3016004960943797e-12   5.3018969109654956e-12   5.6004590018560927e-12   5.6007838364127721e-12   5.8828919311781527e-12   5.8832447619099280e-12   6.1461792951061579e-12   6.1465594231948460e-12   6.3877854897027109e-12   6.3881919494547070e-12   6.6053837141822955e-12   6.6058152834151183e-12   6.7968783786650906e-12   6.7973335915240723e-12   6.9604252852423347e-12   6.9609024467506457e-12   7.0944493885227926e-12   7.0949465913599796e-12   7.1976599640511408e-12   7.1981751072919218e-12   7.2690630383884141e-12   7.2695938477570870e-12   7.3079709613886471e-12   7.3085150117562390e-12   7.3140090294242063e-12   7.3145637677313835e-12   7.2871190930889763e-12   7.2876818634394903e-12   7.2275601177384512e-12   7.2281281868274355e-12   7.1359056892398932e-12   7.1364762728063459e-12   7.0130384902313408e-12   7.0136087797482430e-12   6.8601417992497429e-12   6.8607089893063480e-12   6.6786880952302967e-12   6.6792494101762234e-12   6.4704248765377112e-12   6.4709775976907575e-12   6.2373578320439970e-12   6.2378993234039759e-12   5.9817315247927366e-12   5.9822592588710682e-12   5.7060077758635464e-12   5.7065193577119109e-12   5.4128419556245807e-12   5.4133351461538816e-12   5.1050574111909772e-12   5.1055301485689562e-12   4.7856182759123222e-12   4.7860686956603335e-12   4.4576009232531170e-12   4.4580273760041579e-12   4.1241643396099412e-12   4.1245654071180328e-12   3.7885197016625578e-12   3.7888942104193912e-12   3.4538994507417639e-12   3.4542464835211394e-12   3.1235261630614625e-12   3.1238450673430369e-12   2.8005815140479250e-12   2.8008719089161053e-12   2.4881756374436854e-12   2.4884374168857786e-12   2.1893171726377537e-12   2.1895505071171973e-12   1.9068842898030947e-12   1.9070896247963212e-12   1.6435969712138631e-12   1.6437750238406396e-12   1.4019908161548996e-12   1.4021425695866504e-12   1.1843926215132805e-12   1.1845193182534122e-12   9.9289797437417585e-13   9.9300110891678581e-13   8.2935107404072465e-13   8.2943238632717482e-13   6.9532698398310521e-13   6.9538845302268441e-13   5.9211648781561736e-13   5.9216033169533908e-13   5.2071383246285418e-13   5.2074238857803245e-13   4.8180668370914672e-13   4.8182291882151389e-13   4.7577039638537181e-13   4.7577776184946954e-13   5.0263343121423061e-13   5.0265524521272248e-13   5.6409843976938970e-13   5.6221568214262041e-13   6.7825173446204284e-13   6.5819539669162120e-13   6.2224168589945878e-13   8.2053271066827395e-13   1.3601943875855815e-12   1.0652600255145385e-12   1.5641079319351096e-12   1.5924187986182036e-12   1.7948441005159034e-12   1.8004814380963496e-12   2.0490781055318896e-12   2.0493609641374123e-12   2.3225082270090647e-12   2.3224859975205041e-12   2.6122245090208280e-12   2.6122257430955865e-12   2.9154438437235003e-12   2.9154448595019226e-12   3.2292492090564327e-12   3.2292487936459199e-12   3.5506181423620939e-12   3.5506159866873166e-12   3.8764553863832569e-12   3.8764512136919156e-12   4.2036227117590119e-12   4.2036163624190338e-12   4.5289691315199827e-12   4.5289605093137423e-12   4.8493612469924450e-12   4.8493502871436006e-12   5.1617134145180725e-12   5.1617000708418614e-12   5.4630174502518507e-12   5.4630016913896708e-12   5.7503715910970405e-12   5.7503534002216521e-12   6.0210084334244495e-12   6.0209878097242970e-12   6.2723215796834431e-12   6.2722985394953493e-12   6.5018907364047433e-12   6.5018653146109679e-12   6.7075050204312871e-12   6.7074772712671266e-12   6.8871842500560671e-12   6.8871542473338856e-12   7.0391980137181505e-12   7.0391658510810255e-12   7.1620823345752330e-12   7.1620481248575261e-12   7.2546537690182755e-12   7.2546176436273076e-12   7.3160208032915235e-12   7.3159829115208081e-12   7.3455924393973534e-12   7.3455529467241006e-12   7.3430838864914528e-12   7.3430429737462804e-12   7.3085193036062878e-12   7.3084771647257907e-12   7.2422315668460514e-12   7.2421884075749797e-12   7.1448590635525087e-12   7.1448150992725155e-12   7.0173395443147402e-12   7.0172949982831636e-12   6.8609010921269153e-12   6.8608561929602270e-12   6.6770502947448689e-12   6.6770052748225186e-12   6.4675577360438284e-12   6.4675128286523588e-12   6.2344409438646935e-12   6.2343963815651900e-12   5.9799449605130089e-12   5.9799009724953457e-12   5.7065207213028373e-12   5.7064775315298125e-12   5.4168014512063421e-12   5.4167592760443244e-12   5.1135773051344023e-12   5.1135363514830379e-12   4.7997684975181603e-12   4.7997289606330974e-12   4.4783971787396585e-12   4.4783592406162998e-12   4.1525583304222449e-12   4.1525221579981081e-12   3.8253899590371963e-12   3.8253557025712551e-12   3.5000428752996992e-12   3.5000106670427064e-12   3.1796503498290481e-12   3.1796203029637198e-12   2.8672979386674969e-12   2.8672701459218916e-12   2.5659937670078429e-12   2.5659683005174528e-12   2.2786395600168666e-12   2.2786164702932969e-12   2.0080026971462336e-12   2.0079820134136832e-12   1.7566895614059511e-12   1.7566712916411016e-12   1.5271204383221621e-12   1.5271045704283760e-12   1.3215062084953363e-12   1.3214927117692294e-12   1.1418270573176122e-12   1.1418158851811247e-12   9.8981340912263827e-13   9.8980450244647759e-13   8.6692927163024290e-13   8.6692256241885256e-13   7.7435815679098853e-13   7.7435356866422017e-13   7.1299171494184550e-13   7.1298915964890633e-13   6.8342125588156661e-13   6.8342055611895140e-13   6.8593222861398952e-13   6.8593289714252421e-13   7.2049438260702008e-13   7.2050351989012875e-13   7.8674372092591058e-13   7.8677986522848688e-13   8.8729746937025865e-13   8.8415518828279982e-13   1.0478135234808731e-12   1.0177994527025998e-12   9.3365369751378031e-13   1.2274877564607981e-12   1.8635688660482781e-12   1.4558057751487972e-12   2.0854650856788609e-12   2.1252702466378558e-12   2.3368745575562680e-12   2.3444599591201181e-12   2.6093273603656465e-12   2.6096530441542056e-12   2.8969830496020706e-12   2.8969489862002669e-12   3.1967391979917027e-12   3.1967393577300380e-12   3.5057238739993218e-12   3.5057246522558326e-12   3.8209634517612241e-12   3.8209646786009383e-12   4.1394218676224145e-12   4.1394233298563786e-12   4.4580321675736587e-12   4.4580336718724719e-12   4.7737258605523000e-12   4.7737273287179391e-12   5.0834625259139696e-12   5.0834639374382208e-12   5.3842591270855879e-12   5.3842604883773262e-12   5.6732187477800363e-12   5.6732200757161332e-12   5.947558