<?xml version="1.0"?>
<VTKFile type="UnstructuredGrid"  version="0.1"  >
<UnstructuredGrid>
<Piece  NumberOfPoints="81" NumberOfCells="128">
<Points>
<DataArray  type="Float64"  NumberOfComponents="3"  format="ascii">0 0 0  0.125 0 0  0.25 0 0  0.375 0 0  0.5 0 0  0.625 0 0  0.75 0 0  0.875 0 0  1 0 0  0 0.125 0  0.125 0.125 0  0.25 0.125 0  0.375 0.125 0  0.5 0.125 0  0.625 0.125 0  0.75 0.125 0  0.875 0.125 0  1 0.125 0  0 0.25 0  0.125 0.25 0  0.25 0.25 0  0.375 0.25 0  0.5 0.25 0  0.625 0.25 0  0.75 0.25 0  0.875 0.25 0  1 0.25 0  0 0.375 0  0.125 0.375 0  0.25 0.375 0  0.375 0.375 0  0.5 0.375 0  0.625 0.375 0  0.75 0.375 0  0.875 0.375 0  1 0.375 0  0 0.5 0  0.125 0.5 0  0.25 0.5 0  0.375 0.5 0  0.5 0.5 0  0.625 0.5 0  0.75 0.5 0  0.875 0.5 0  1 0.5 0  0 0.625 0  0.125 0.625 0  0.25 0.625 0  0.375 0.625 0  0.5 0.625 0  0.625 0.625 0  0.75 0.625 0  0.875 0.625 0  1 0.625 0  0 0.75 0  0.125 0.75 0  0.25 0.75 0  0.375 0.75 0  0.5 0.75 0  0.625 0.75 0  0.75 0.75 0  0.875 0.75 0  1 0.75 0  0 0.875 0  0.125 0.875 0  0.25 0.875 0  0.375 0.875 0  0.5 0.875 0  0.625 0.875 0  0.75 0.875 0  0.875 0.875 0  1 0.875 0  0 1 0  0.125 1 0  0.25 1 0  0.375 1 0  0.5 1 0  0.625 1 0  0.75 1 0  0.875 1 0  1 1 0  </DataArray>
</Points>
<Cells>
<DataArray  type="UInt32"  Name="connectivity"  format="ascii">0 1 10  0 9 10  1 2 11  1 10 11  2 3 12  2 11 12  3 4 13  3 12 13  4 5 14  4 13 14  5 6 15  5 14 15  6 7 16  6 15 16  7 8 17  7 16 17  9 10 19  9 18 19  10 11 20  10 19 20  11 12 21  11 20 21  12 13 22  12 21 22  13 14 23  13 22 23  14 15 24  14 23 24  15 16 25  15 24 25  16 17 26  16 25 26  18 19 28  18 27 28  19 20 29  19 28 29  20 21 30  20 29 30  21 22 31  21 30 31  22 23 32  22 31 32  23 24 33  23 32 33  24 25 34  24 33 34  25 26 35  25 34 35  27 28 37  27 36 37  28 29 38  28 37 38  29 30 39  29 38 39  30 31 40  30 39 40  31 32 41  31 40 41  32 33 42  32 41 42  33 34 43  33 42 43  34 35 44  34 43 44  36 37 46  36 45 46  37 38 47  37 46 47  38 39 48  38 47 48  39 40 49  39 48 49  40 41 50  40 49 50  41 42 51  41 50 51  42 43 52  42 51 52  43 44 53  43 52 53  45 46 55  45 54 55  46 47 56  46 55 56  47 48 57  47 56 57  48 49 58  48 57 58  49 50 59  49 58 59  50 51 60  50 59 60  51 52 61  51 60 61  52 53 62  52 61 62  54 55 64  54 63 64  55 56 65  55 64 65  56 57 66  56 65 66  57 58 67  57 66 67  58 59 68  58 67 68  59 60 69  59 68 69  60 61 70  60 69 70  61 62 71  61 70 71  63 64 73  63 72 73  64 65 74  64 73 74  65 66 75  65 74 75  66 67 76  66 75 76  67 68 77  67 76 77  68 69 78  68 77 78  69 70 79  69 78 79  70 71 80  70 79 80  </DataArray>
<DataArray  type="UInt32"  Name="offsets"  format="ascii">3 6 9 12 15 18 21 24 27 30 33 36 39 42 45 48 51 54 57 60 63 66 69 72 75 78 81 84 87 90 93 96 99 102 105 108 111 114 117 120 123 126 129 132 135 138 141 144 147 150 153 156 159 162 165 168 171 174 177 180 183 186 189 192 195 198 201 204 207 210 213 216 219 222 225 228 231 234 237 240 243 246 249 252 255 258 261 264 267 270 273 276 279 282 285 288 291 294 297 300 303 306 309 312 315 318 321 324 327 330 333 336 339 342 345 348 351 354 357 360 363 366 369 372 375 378 381 384 </DataArray>
<DataArray  type="UInt8"  Name="types"  format="ascii">5 5 5 5 5 5 5 5 5 5 5 5 5 5 5 5 5 5 5 5 5 5 5 5 5 5 5 5 5 5 5 5 5 5 5 5 5 5 5 5 5 5 5 5 5 5 5 5 5 5 5 5 5 5 5 5 5 5 5 5 5 5 5 5 5 5 5 5 5 5 5 5 5 5 5 5 5 5 5 5 5 5 5 5 5 5 5 5 5 5 5 5 5 5 5 5 5 5 5 5 5 5 5 5 5 5 5 5 5 5 5 5 5 5 5 5 5 5 5 5 5 5 5 5 5 5 5 5 </DataArray>
</Cells>
<CellData  Scalars="f_88097"> 
<DataArray  type="Float64"  Name="f_88097"  format="ascii">9.5815850640358899e-36   9.5815850640358899e-36   0.0000000000000000e+00   0.0000000000000000e+00   8.1082988110052979e-35   8.1082988110052979e-35   8.4113151325505985e-36   8.4113151325505985e-36   3.5317074718038493e-35   3.5317074718038493e-35   4.8148248609680907e-35   4.8148248609680907e-35   1.2789378536946482e-34   1.2789378536946482e-34   7.6589987480243318e-36   7.6589987480243318e-36   5.2244193369879499e-38   5.2244193369879499e-38   2.6749027005378304e-35   2.6749027005378304e-35   4.8148248609680907e-35   4.8148248609680907e-35   2.1451465797672482e-35   2.1451465797672482e-35   5.2327784079271210e-35   5.2327784079271210e-35   8.8271789117748360e-35   8.8271789117748360e-35   1.2037062152420237e-34   1.2037062152420237e-34   6.1857124949937230e-36   6.1857124949937230e-36   5.6841682386428891e-35   5.6841682386428891e-35   1.6718141878361440e-35   1.6718141878361440e-35   1.1502081612312663e-34   1.1502081612312663e-34   1.5038491061519811e-35   1.5038491061519811e-35   6.6371023257094905e-35   6.6371023257094905e-35   3.8786089157798528e-35   3.8786089157798528e-35   1.6049416203226962e-34   1.6049416203226962e-34   1.1301463909772326e-34   1.1301463909772326e-34   3.0980806668338491e-35   3.0980806668338491e-35   1.0077904901049748e-34   1.0077904901049748e-34   1.4746707241549024e-34   1.4746707241549024e-34   1.1747319121252969e-34   1.1747319121252969e-34   1.2031054070182690e-34   1.2031054070182690e-34   1.0436300067567125e-34   1.0436300067567125e-34   3.7615819226313179e-35   3.7615819226313179e-35   2.5578757073892965e-35   2.5578757073892965e-35   3.5526051491518057e-36   3.5526051491518057e-36   1.7261481489408165e-35   1.7261481489408165e-35   3.1818803529991395e-34   3.1818803529991395e-34   3.3378815144015968e-35   3.3378815144015968e-35   2.4223596778781613e-34   2.4223596778781613e-34   2.8245823145425341e-35   2.8245823145425341e-35   5.4469796007436272e-35   5.4469796007436272e-35   3.2474990598717061e-35   3.2474990598717061e-35   3.5609642200909826e-35   3.5609642200909826e-35   1.0699610802151302e-34   1.0699610802151302e-34   1.8724318903764804e-35   1.8724318903764804e-35   6.7760718800733639e-35   6.7760718800733639e-35   7.7373650380791473e-35   7.7373650380791473e-35   9.1615417493420600e-35   9.1615417493420600e-35   8.8271789117748371e-35   8.8271789117748371e-35   1.3374513502689152e-35   1.3374513502689152e-35   3.2098832406453956e-35   3.2098832406453956e-35   1.3374513502689152e-35   1.3374513502689152e-35   7.4897275615059205e-35   7.4897275615059205e-35   2.2070487057296495e-35   2.2067947279437093e-35   4.9872306990886932e-35   4.9874846768746331e-35   2.1399221604302622e-34   2.1399221604302622e-34   6.6872567513445751e-35   6.6872567513445751e-35   8.3590709391807199e-37   8.3590709391807199e-37   1.6143455751292750e-35   1.6143455751292750e-35   5.4333961104674670e-35   5.4333961104674670e-35   5.0321607053867857e-35   5.0321607053867857e-35   1.0451147562938990e-36   1.0448838673975899e-36   6.0603264309060208e-36   6.0605573198023304e-36   2.0897677347951797e-35   2.0897677347951797e-35   1.6718141878361440e-35   1.6718141878361440e-35   2.4772237338745449e-35   2.4772237338745449e-35   </DataArray> 
</CellData> 
</Piece>
</UnstructuredGrid>
</VTKFile>