<?xml version="1.0"?>
<VTKFile type="UnstructuredGrid"  version="0.1"  >
<UnstructuredGrid>
<Piece  NumberOfPoints="4225" NumberOfCells="8192">
<Points>
<DataArray  type="Float64"  NumberOfComponents="3"  format="ascii">0 0 0  0.015625 0 0  0.03125 0 0  0.046875 0 0  0.0625 0 0  0.078125 0 0  0.09375 0 0  0.109375 0 0  0.125 0 0  0.140625 0 0  0.15625 0 0  0.171875 0 0  0.1875 0 0  0.203125 0 0  0.21875 0 0  0.234375 0 0  0.25 0 0  0.265625 0 0  0.28125 0 0  0.296875 0 0  0.3125 0 0  0.328125 0 0  0.34375 0 0  0.359375 0 0  0.375 0 0  0.390625 0 0  0.40625 0 0  0.421875 0 0  0.4375 0 0  0.453125 0 0  0.46875 0 0  0.484375 0 0  0.5 0 0  0.515625 0 0  0.53125 0 0  0.546875 0 0  0.5625 0 0  0.578125 0 0  0.59375 0 0  0.609375 0 0  0.625 0 0  0.640625 0 0  0.65625 0 0  0.671875 0 0  0.6875 0 0  0.703125 0 0  0.71875 0 0  0.734375 0 0  0.75 0 0  0.765625 0 0  0.78125 0 0  0.796875 0 0  0.8125 0 0  0.828125 0 0  0.84375 0 0  0.859375 0 0  0.875 0 0  0.890625 0 0  0.90625 0 0  0.921875 0 0  0.9375 0 0  0.953125 0 0  0.96875 0 0  0.984375 0 0  1 0 0  0 0.015625 0  0.015625 0.015625 0  0.03125 0.015625 0  0.046875 0.015625 0  0.0625 0.015625 0  0.078125 0.015625 0  0.09375 0.015625 0  0.109375 0.015625 0  0.125 0.015625 0  0.140625 0.015625 0  0.15625 0.015625 0  0.171875 0.015625 0  0.1875 0.015625 0  0.203125 0.015625 0  0.21875 0.015625 0  0.234375 0.015625 0  0.25 0.015625 0  0.265625 0.015625 0  0.28125 0.015625 0  0.296875 0.015625 0  0.3125 0.015625 0  0.328125 0.015625 0  0.34375 0.015625 0  0.359375 0.015625 0  0.375 0.015625 0  0.390625 0.015625 0  0.40625 0.015625 0  0.421875 0.015625 0  0.4375 0.015625 0  0.453125 0.015625 0  0.46875 0.015625 0  0.484375 0.015625 0  0.5 0.015625 0  0.515625 0.015625 0  0.53125 0.015625 0  0.546875 0.015625 0  0.5625 0.015625 0  0.578125 0.015625 0  0.59375 0.015625 0  0.609375 0.015625 0  0.625 0.015625 0  0.640625 0.015625 0  0.65625 0.015625 0  0.671875 0.015625 0  0.6875 0.015625 0  0.703125 0.015625 0  0.71875 0.015625 0  0.734375 0.015625 0  0.75 0.015625 0  0.765625 0.015625 0  0.78125 0.015625 0  0.796875 0.015625 0  0.8125 0.015625 0  0.828125 0.015625 0  0.84375 0.015625 0  0.859375 0.015625 0  0.875 0.015625 0  0.890625 0.015625 0  0.90625 0.015625 0  0.921875 0.015625 0  0.9375 0.015625 0  0.953125 0.015625 0  0.96875 0.015625 0  0.984375 0.015625 0  1 0.015625 0  0 0.03125 0  0.015625 0.03125 0  0.03125 0.03125 0  0.046875 0.03125 0  0.0625 0.03125 0  0.078125 0.03125 0  0.09375 0.03125 0  0.109375 0.03125 0  0.125 0.03125 0  0.140625 0.03125 0  0.15625 0.03125 0  0.171875 0.03125 0  0.1875 0.03125 0  0.203125 0.03125 0  0.21875 0.03125 0  0.234375 0.03125 0  0.25 0.03125 0  0.265625 0.03125 0  0.28125 0.03125 0  0.296875 0.03125 0  0.3125 0.03125 0  0.328125 0.03125 0  0.34375 0.03125 0  0.359375 0.03125 0  0.375 0.03125 0  0.390625 0.03125 0  0.40625 0.03125 0  0.421875 0.03125 0  0.4375 0.03125 0  0.453125 0.03125 0  0.46875 0.03125 0  0.484375 0.03125 0  0.5 0.03125 0  0.515625 0.03125 0  0.53125 0.03125 0  0.546875 0.03125 0  0.5625 0.03125 0  0.578125 0.03125 0  0.59375 0.03125 0  0.609375 0.03125 0  0.625 0.03125 0  0.640625 0.03125 0  0.65625 0.03125 0  0.671875 0.03125 0  0.6875 0.03125 0  0.703125 0.03125 0  0.71875 0.03125 0  0.734375 0.03125 0  0.75 0.03125 0  0.765625 0.03125 0  0.78125 0.03125 0  0.796875 0.03125 0  0.8125 0.03125 0  0.828125 0.03125 0  0.84375 0.03125 0  0.859375 0.03125 0  0.875 0.03125 0  0.890625 0.03125 0  0.90625 0.03125 0  0.921875 0.03125 0  0.9375 0.03125 0  0.953125 0.03125 0  0.96875 0.03125 0  0.984375 0.03125 0  1 0.03125 0  0 0.046875 0  0.015625 0.046875 0  0.03125 0.046875 0  0.046875 0.046875 0  0.0625 0.046875 0  0.078125 0.046875 0  0.09375 0.046875 0  0.109375 0.046875 0  0.125 0.046875 0  0.140625 0.046875 0  0.15625 0.046875 0  0.171875 0.046875 0  0.1875 0.046875 0  0.203125 0.046875 0  0.21875 0.046875 0  0.234375 0.046875 0  0.25 0.046875 0  0.265625 0.046875 0  0.28125 0.046875 0  0.296875 0.046875 0  0.3125 0.046875 0  0.328125 0.046875 0  0.34375 0.046875 0  0.359375 0.046875 0  0.375 0.046875 0  0.390625 0.046875 0  0.40625 0.046875 0  0.421875 0.046875 0  0.4375 0.046875 0  0.453125 0.046875 0  0.46875 0.046875 0  0.484375 0.046875 0  0.5 0.046875 0  0.515625 0.046875 0  0.53125 0.046875 0  0.546875 0.046875 0  0.5625 0.046875 0  0.578125 0.046875 0  0.59375 0.046875 0  0.609375 0.046875 0  0.625 0.046875 0  0.640625 0.046875 0  0.65625 0.046875 0  0.671875 0.046875 0  0.6875 0.046875 0  0.703125 0.046875 0  0.71875 0.046875 0  0.734375 0.046875 0  0.75 0.046875 0  0.765625 0.046875 0  0.78125 0.046875 0  0.796875 0.046875 0  0.8125 0.046875 0  0.828125 0.046875 0  0.84375 0.046875 0  0.859375 0.046875 0  0.875 0.046875 0  0.890625 0.046875 0  0.90625 0.046875 0  0.921875 0.046875 0  0.9375 0.046875 0  0.953125 0.046875 0  0.96875 0.046875 0  0.984375 0.046875 0  1 0.046875 0  0 0.0625 0  0.015625 0.0625 0  0.03125 0.0625 0  0.046875 0.0625 0  0.0625 0.0625 0  0.078125 0.0625 0  0.09375 0.0625 0  0.109375 0.0625 0  0.125 0.0625 0  0.140625 0.0625 0  0.15625 0.0625 0  0.171875 0.0625 0  0.1875 0.0625 0  0.203125 0.0625 0  0.21875 0.0625 0  0.234375 0.0625 0  0.25 0.0625 0  0.265625 0.0625 0  0.28125 0.0625 0  0.296875 0.0625 0  0.3125 0.0625 0  0.328125 0.0625 0  0.34375 0.0625 0  0.359375 0.0625 0  0.375 0.0625 0  0.390625 0.0625 0  0.40625 0.0625 0  0.421875 0.0625 0  0.4375 0.0625 0  0.453125 0.0625 0  0.46875 0.0625 0  0.484375 0.0625 0  0.5 0.0625 0  0.515625 0.0625 0  0.53125 0.0625 0  0.546875 0.0625 0  0.5625 0.0625 0  0.578125 0.0625 0  0.59375 0.0625 0  0.609375 0.0625 0  0.625 0.0625 0  0.640625 0.0625 0  0.65625 0.0625 0  0.671875 0.0625 0  0.6875 0.0625 0  0.703125 0.0625 0  0.71875 0.0625 0  0.734375 0.0625 0  0.75 0.0625 0  0.765625 0.0625 0  0.78125 0.0625 0  0.796875 0.0625 0  0.8125 0.0625 0  0.828125 0.0625 0  0.84375 0.0625 0  0.859375 0.0625 0  0.875 0.0625 0  0.890625 0.0625 0  0.90625 0.0625 0  0.921875 0.0625 0  0.9375 0.0625 0  0.953125 0.0625 0  0.96875 0.0625 0  0.984375 0.0625 0  1 0.0625 0  0 0.078125 0  0.015625 0.078125 0  0.03125 0.078125 0  0.046875 0.078125 0  0.0625 0.078125 0  0.078125 0.078125 0  0.09375 0.078125 0  0.109375 0.078125 0  0.125 0.078125 0  0.140625 0.078125 0  0.15625 0.078125 0  0.171875 0.078125 0  0.1875 0.078125 0  0.203125 0.078125 0  0.21875 0.078125 0  0.234375 0.078125 0  0.25 0.078125 0  0.265625 0.078125 0  0.28125 0.078125 0  0.296875 0.078125 0  0.3125 0.078125 0  0.328125 0.078125 0  0.34375 0.078125 0  0.359375 0.078125 0  0.375 0.078125 0  0.390625 0.078125 0  0.40625 0.078125 0  0.421875 0.078125 0  0.4375 0.078125 0  0.453125 0.078125 0  0.46875 0.078125 0  0.484375 0.078125 0  0.5 0.078125 0  0.515625 0.078125 0  0.53125 0.078125 0  0.546875 0.078125 0  0.5625 0.078125 0  0.578125 0.078125 0  0.59375 0.078125 0  0.609375 0.078125 0  0.625 0.078125 0  0.640625 0.078125 0  0.65625 0.078125 0  0.671875 0.078125 0  0.6875 0.078125 0  0.703125 0.078125 0  0.71875 0.078125 0  0.734375 0.078125 0  0.75 0.078125 0  0.765625 0.078125 0  0.78125 0.078125 0  0.796875 0.078125 0  0.8125 0.078125 0  0.828125 0.078125 0  0.84375 0.078125 0  0.859375 0.078125 0  0.875 0.078125 0  0.890625 0.078125 0  0.90625 0.078125 0  0.921875 0.078125 0  0.9375 0.078125 0  0.953125 0.078125 0  0.96875 0.078125 0  0.984375 0.078125 0  1 0.078125 0  0 0.09375 0  0.015625 0.09375 0  0.03125 0.09375 0  0.046875 0.09375 0  0.0625 0.09375 0  0.078125 0.09375 0  0.09375 0.09375 0  0.109375 0.09375 0  0.125 0.09375 0  0.140625 0.09375 0  0.15625 0.09375 0  0.171875 0.09375 0  0.1875 0.09375 0  0.203125 0.09375 0  0.21875 0.09375 0  0.234375 0.09375 0  0.25 0.09375 0  0.265625 0.09375 0  0.28125 0.09375 0  0.296875 0.09375 0  0.3125 0.09375 0  0.328125 0.09375 0  0.34375 0.09375 0  0.359375 0.09375 0  0.375 0.09375 0  0.390625 0.09375 0  0.40625 0.09375 0  0.421875 0.09375 0  0.4375 0.09375 0  0.453125 0.09375 0  0.46875 0.09375 0  0.484375 0.09375 0  0.5 0.09375 0  0.515625 0.09375 0  0.53125 0.09375 0  0.546875 0.09375 0  0.5625 0.09375 0  0.578125 0.09375 0  0.59375 0.09375 0  0.609375 0.09375 0  0.625 0.09375 0  0.640625 0.09375 0  0.65625 0.09375 0  0.671875 0.09375 0  0.6875 0.09375 0  0.703125 0.09375 0  0.71875 0.09375 0  0.734375 0.09375 0  0.75 0.09375 0  0.765625 0.09375 0  0.78125 0.09375 0  0.796875 0.09375 0  0.8125 0.09375 0  0.828125 0.09375 0  0.84375 0.09375 0  0.859375 0.09375 0  0.875 0.09375 0  0.890625 0.09375 0  0.90625 0.09375 0  0.921875 0.09375 0  0.9375 0.09375 0  0.953125 0.09375 0  0.96875 0.09375 0  0.984375 0.09375 0  1 0.09375 0  0 0.109375 0  0.015625 0.109375 0  0.03125 0.109375 0  0.046875 0.109375 0  0.0625 0.109375 0  0.078125 0.109375 0  0.09375 0.109375 0  0.109375 0.109375 0  0.125 0.109375 0  0.140625 0.109375 0  0.15625 0.109375 0  0.171875 0.109375 0  0.1875 0.109375 0  0.203125 0.109375 0  0.21875 0.109375 0  0.234375 0.109375 0  0.25 0.109375 0  0.265625 0.109375 0  0.28125 0.109375 0  0.296875 0.109375 0  0.3125 0.109375 0  0.328125 0.109375 0  0.34375 0.109375 0  0.359375 0.109375 0  0.375 0.109375 0  0.390625 0.109375 0  0.40625 0.109375 0  0.421875 0.109375 0  0.4375 0.109375 0  0.453125 0.109375 0  0.46875 0.109375 0  0.484375 0.109375 0  0.5 0.109375 0  0.515625 0.109375 0  0.53125 0.109375 0  0.546875 0.109375 0  0.5625 0.109375 0  0.578125 0.109375 0  0.59375 0.109375 0  0.609375 0.109375 0  0.625 0.109375 0  0.640625 0.109375 0  0.65625 0.109375 0  0.671875 0.109375 0  0.6875 0.109375 0  0.703125 0.109375 0  0.71875 0.109375 0  0.734375 0.109375 0  0.75 0.109375 0  0.765625 0.109375 0  0.78125 0.109375 0  0.796875 0.109375 0  0.8125 0.109375 0  0.828125 0.109375 0  0.84375 0.109375 0  0.859375 0.109375 0  0.875 0.109375 0  0.890625 0.109375 0  0.90625 0.109375 0  0.921875 0.109375 0  0.9375 0.109375 0  0.953125 0.109375 0  0.96875 0.109375 0  0.984375 0.109375 0  1 0.109375 0  0 0.125 0  0.015625 0.125 0  0.03125 0.125 0  0.046875 0.125 0  0.0625 0.125 0  0.078125 0.125 0  0.09375 0.125 0  0.109375 0.125 0  0.125 0.12
[...]
<CellData  Scalars="f_176379"> 
<DataArray  type="Float64"  Name="f_176379"  format="ascii">1.1881210558422427e-10   1.1862612642457486e-10   1.1824058489390162e-10   1.1803708851909847e-10   1.1710299399749568e-10   1.1689390647665721e-10   1.1541028745575189e-10   1.1520262460179320e-10   1.1317876580769394e-10   1.1297460009877385e-10   1.1042991967075105e-10   1.1023034659685701e-10   1.0719022194530806e-10   1.0699617456021016e-10   1.0349087271112257e-10   1.0330320994378620e-10   9.9367498741453622e-11   9.9187010384097584e-11   9.4859810398205603e-11   9.4687213291869036e-11   9.0011219199704219e-11   8.9847152052573069e-11   8.4868419743985176e-11   8.4713437864160792e-11   7.9480940014167568e-11   7.9335510440837339e-11   7.3900664396797202e-11   7.3765161672884066e-11   6.8181334006804218e-11   6.8056036731793151e-11   6.2378029131154748e-11   6.2263117373994240e-11   5.6546638775619387e-11   5.6442192401802129e-11   5.0743322423113264e-11   5.0649320365130314e-11   4.5023969187294442e-11   4.4940289672107403e-11   3.9443659569889967e-11   3.9370081310844448e-11   3.4056135005479937e-11   3.3992339345630630e-11   2.8913280302195761e-11   2.8858854292480585e-11   2.4064623962776368e-11   2.4019064346736297e-11   1.9556861198122826e-11   1.9519579263855045e-11   1.5433404227013986e-11   1.5403731482540840e-11   1.1733964192802648e-11   1.1711158808771990e-11   8.4941687235401098e-12   8.4774226815333685e-12   5.7452188185182868e-12   5.7336656977371978e-12   3.5135883657192077e-12   3.5063116910715744e-12   1.8207691838746015e-12   1.8168112570636932e-12   6.8306404460977168e-13   6.8143517178867505e-13   1.1142966791692070e-13   1.1111769598712303e-13   1.1137120303071683e-13   1.1135127242072774e-13   6.8288921087161083e-13   6.8213363092569251e-13   1.8204796587327599e-12   1.8179678107064056e-12   3.5131869271345207e-12   3.5079150993383059e-12   5.7447093184815612e-12   5.7357003791529553e-12   8.4935560513021929e-12   8.4798688653919713e-12   1.1733254228275068e-11   1.1713992728912346e-11   1.5432603784637578e-11   1.5406925609883639e-11   1.9555977961863704e-11   1.9523102575669693e-11   2.4063666412779309e-11   2.4022882630876857e-11   2.8912257633811729e-11   2.8862930481502577e-11   3.4055057041456489e-11   3.3996633879807886e-11   3.9442536666499782e-11   3.9374552524605292e-11   4.5022812135304076e-11   4.4944894199900897e-11   5.0742142344534225e-11   5.0654013563273405e-11   5.6545447017161545e-11   5.6446928780046168e-11   6.2376837155421704e-11   6.2267851030257765e-11   6.8180153282152233e-11   6.8060721786483163e-11   7.3899506286955130e-11   7.3769752690144347e-11   7.9479815668591396e-11   7.9339962828413963e-11   8.4867339989922241e-11   8.4717708235668397e-11   9.0010194436998487e-11   8.9851198527377994e-11   9.4858850497812186e-11   9.4690995695173622e-11   9.9366612948692951e-11   9.9190490279443693e-11   1.0349006955493482e-10   1.0330635039814605e-10   1.0718950915370334e-10   1.0699893919617463e-10   1.1042930411443768e-10   1.1023270138846081e-10   1.1317825326056217e-10   1.1297645821484328e-10   1.1540988368291995e-10   1.1520414854969126e-10   1.1710270370846040e-10   1.1689452063974851e-10   1.1824039614545247e-10   1.1801956571524705e-10   1.1881203280487808e-10   1.1856280090524789e-10   1.1862747929517380e-10   1.1782626571882443e-10   1.1804257905276927e-10   1.1721830753941918e-10   1.1690628289863454e-10   1.1607697233475141e-10   1.1522453070922507e-10   1.1440311178080114e-10   1.1300858097089160e-10   1.1220004877781322e-10   1.1027883213825022e-10   1.0948693418976002e-10   1.0706145541638875e-10   1.0628977589935974e-10   1.0338741511829053e-10   1.0263935891008735e-10   9.9292086665452873e-11   9.8570834814913529e-11   9.4814906484085141e-11   9.4123382678068002e-11   8.9998990152625523e-11   8.9339831891071459e-11   8.4890716341669644e-11   8.4266249370221598e-11   7.9539279759526113e-11   7.8951495637407893e-11   7.3996217172816367e-11   7.3446754099277909e-11   6.8314910969382600e-11   6.7805038019239524e-11   6.2550074993127646e-11   6.2080679909629703e-11   5.6757227585325055e-11   5.6328808241850626e-11   5.0992156891254056e-11   5.0604816504004611e-11   4.5310383574838696e-11   4.4963829718201692e-11   3.9766626119111694e-11   3.9460173544441486e-11   3.4414273850415488e-11   3.4146851090321187e-11   2.9304872767188446e-11   2.9075032457259652e-11   2.4487629122429557e-11   2.4293561941957769e-11   2.0008935538126234e-11   1.9848487637339153e-11   1.5911924219505752e-11   1.5782617963319750e-11   1.2236051567345297e-11   1.2135109398073468e-11   9.0167181907155331e-12   8.9410893784695201e-12   6.2849279807617068e-12   6.2313180045427053e-12   4.0669895252838021e-12   4.0318918023969460e-12   2.3842627437096717e-12   2.3639924006868052e-12   1.2529531789621039e-12   1.2436825402518377e-12   6.8395592981125758e-13   6.8175138122422774e-13   6.8275072531142573e-13   6.8361059799737382e-13   1.2493491523307597e-12   1.2492422620632774e-12   2.3782945443278514e-12   2.3731990152385905e-12   4.0587145322806834e-12   4.0446565309545714e-12   6.2744257520565361e-12   6.2475177588771128e-12   9.0040896990967140e-12   8.9605679489559499e-12   1.2221418231041583e-11   1.2157678961420494e-11   1.5895426736302955e-11   1.5808060895590420e-11   1.9990732534186945e-11   1.9876558614338708e-11   2.4467895629689574e-11   2.4323990307597059e-11   2.9283798542005156e-11   2.9107524835458631e-11   3.4392061551638806e-11   3.4181094216508363e-11   3.9743489361399624e-11   3.9495837288417200e-11   4.5286544875563170e-11   4.5000570269085368e-11   5.0967845531283770e-11   5.0642279685595774e-11   5.6732677402126780e-11   5.6366632924732765e-11   6.2525522125054357e-11   6.2118501489423196e-11   6.8290591573603190e-11   6.7842491917832724e-11   7.3972365130326072e-11   7.3483479260730521e-11   7.9516124385320542e-11   7.8987137972740398e-11   8.4868480109896697e-11   8.4300465113292142e-11   8.9977886437508108e-11   8.9372290822707492e-11   9.4795137304356947e-11   9.4153771170903080e-11   9.9273840388595652e-11   9.8598858661161729e-11   1.0337086404793094e-10   1.0266474593797613e-10   1.0704675283808171e-10   1.0631227829940953e-10   1.1026611231051770e-10   1.0950633614515079e-10   1.1299790225320010e-10   1.1221611721477711e-10   1.1521617800208625e-10   1.1441599295067930e-10   1.1689977244571979e-10   1.1608435344696379e-10   1.1802070842892232e-10   1.1718380589041526e-10   1.1856266992696458e-10   1.1769205439211496e-10   1.1783032347780876e-10   1.1644741265156164e-10   1.1723346868475332e-10   1.1582193777171493e-10   1.1610885079174586e-10   1.1469174801873858e-10   1.1445700852168303e-10   1.1305110145209990e-10   1.1228105865804625e-10   1.1089389371195796e-10   1.0959990061940388e-10   1.0823788126456665e-10   1.0643923502621369e-10   1.0510862591380272e-10   1.0282949527749412e-10   1.0153627893240158e-10   9.8805441175794224e-11   9.7555243474193821e-11   9.4405823505665163e-11   9.3203857409610012e-11   8.9673010983114321e-11   8.8524025626934066e-11   8.4652581883610819e-11   8.3560816477071235e-11   7.9392884828054291e-11   7.8362027657723606e-11   7.3944572992164934e-11   7.2977725819819004e-11   6.8360116185345558e-11   6.7459764340133293e-11   6.2693295476909277e-11   6.1861283903785451e-11   5.6998685217245282e-11   5.6236200702088210e-11   5.1331127431973390e-11   5.0638687170926008e-11   4.5745203650308809e-11   4.5122650267092923e-11   4.0294709243107324e-11   3.9741212306806037e-11   3.5032135339461448e-11   3.4546199362055813e-11   3.0008163303540118e-11   2.9587642143670591e-11   2.5271176642921534e-11   2.4913294174613991e-11   2.0866795046878154e-11   2.0568171896922249e-11   1.6837435043016354e-11   1.6594121136162299e-11   1.3221901502603509e-11   1.3029414103276576e-11   1.0055013926973558e-11   9.9083808116185356e-12   7.3672711176154939e-12   7.2610784597764912e-12   5.1845574553593218e-12   5.1130019642797312e-12   3.5278936199371872e-12   3.4848384296534477e-12   2.4132341494806778e-12   2.3922679203969369e-12   1.8513137897003613e-12   1.8458124534984174e-12   1.8475441127872025e-12   1.8507346659810054e-12   2.4019614012785159e-12   2.4069871330762284e-12   3.5092262988945227e-12   3.5092128253132775e-12   5.1586752319304488e-12   5.1467966998840271e-12   7.3344231056179259e-12   7.3039679298316416e-12   1.0015516286936527e-11   9.9599517862880403e-12   1.3176134399737569e-11   1.3089169710725646e-11   1.6785838989892421e-11   1.6661485651326620e-11   2.0809866664871376e-11   2.0642496290106890e-11   2.5209463884685972e-11   2.4993862366423388e-11   2.9942260180625952e-11   2.9673677906112037e-11   3.4962676206938664e-11   3.4636873799556361e-11   4.0222362695889528e-11   3.9835651843655057e-11   4.5670666088971061e-11   4.5219945065520382e-11   5.1255116359753021e-11   5.0737899897578535e-11   5.6921932330860412e-11   5.6336375557632233e-11   6.2616539619871714e-11   6.1961455828130014e-11   6.8284096222314246e-11   6.7558968303876556e-11   7.3870020678343883e-11   7.3075006110109650e-11   7.9320517730121849e-11   7.8456447068792634e-11   8.4583096416003448e-11   8.3651465314792683e-11   8.9607075616001027e-11   8.8610030444144364e-11   9.4344072193273625e-11   9.3284389397458482e-11   9.8748467058776658e-11   9.7629526461049071e-11   1.0277784474950680e-10   1.0160359701053499e-10   1.0639340215726559e-10   1.0516833059420374e-10   1.0956032758359799e-10   1.0828940465176883e-10   1.1224807980085915e-10   1.1093671085092753e-10   1.1443124400121873e-10   1.1308529969634950e-10   1.1608836046762194e-10   1.1471330264482339e-10   1.1718209965436214e-10   1.1577473415570771e-10   1.1769044429663494e-10   1.1624027276861089e-10   1.1645548137252911e-10   1.1451684094161407e-10   1.1585051307612725e-10   1.1387940683658514e-10   1.1474894361361282e-10   1.1277038199787626e-10   1.1314449382309906e-10   1.1117739735725979e-10   1.1103074361556033e-10   1.0908514807869748e-10   1.0842504708529579e-10   1.0651007748863863e-10   1.0535247983802430e-10   1.0347710036651294e-10   1.0184264673789415e-10   1.0001544435096013e-10   9.7929348842702233e-11   9.6158446766034570e-11   9.3650271661060634e-11   9.1943251956291141e-11   8.9046623703021359e-11   8.7410453909485272e-11   8.4162739627857364e-11   8.2603705352758104e-11   7.9045653191650709e-11   7.7569297396244249e-11   7.3744644209503486e-11   7.2355713728990897e-11   6.8310763905092627e-11   6.7013163680846139e-11   6.2796343218150657e-11   6.1593098662123089e-11   5.7254488800636104e-11   5.6147716642789227e-11   5.1738571551340063e-11   5.0729459446592874e-11   4.6301712611597393e-11   4.5390507697856946e-11   4.0996271771610296e-11   4.0182278286861170e-11   3.5873343210458877e-11   3.5154929192990004e-11   3.0982263427749900e-11   3.0356876431856049e-11   2.6370136102426514e-11   2.5834327780785215e-11   2.2081378458262515e-11   2.1630837770258523e-11   1.8157293498971592e-11   1.7786888229910241e-11   1.4635672237885576e-11   1.4339498424237100e-11   1.1550429749085393e-11   1.1321868537304969e-11   8.9312785463262420e-12   8.7630599366437162e-12   6.8034424352877278e-12   6.6877152954713390e-12   5.1874135945638103e-12   5.1158212709096991e-12   4.0987552248721395e-12   4.0625160214538291e-12   3.5479516670451917e-12   3.5379434182947069e-12   3.5403074323408035e-12   3.5471553546431022e-12   4.0758961174606775e-12   4.0900630933451500e-12   5.1495596960545148e-12   5.1614381219578789e-12   6.7509581935997416e-12   6.7509625064059710e-12   8.8646692675594316e-12   8.8433282587418005e-12   1.1470336733411063e-11   1.1418384761974891e-11   1.4542866606264227e-11   1.4451332831962291e-11   1.8052668770379400e-11   1.7912963547757435e-11   2.1965941948723487e-11   2.1769939550214232e-11   2.6244999228461574e-11   2.5985116099483320e-11   3.0848631007643769e-11   3.0517898800502406e-11   3.5732501866847521e-11   3.5324634549967089e-11   4.0849577545306445e-11   4.0359031941121814e-11   4.6150577907483171e-11   4.5572607076972662e-11   5.1584451540490690e-11   5.0915150498990632e-11   5.7098867408975182e-11   5.6335210734555038e-11   6.2640718836108635e-11   6.1780589807302225e-11   6.8156634954958791e-11   6.7198845937548682e-11   7.3593494707152804e-11   7.2537798594689453e-11   7.8898938441190662e-11   7.7746031037154297e-11   8.4021872184632728e-11   8.2773385504519193e-11   8.8912959742976717e-11   8.7571446295701206e-11   9.3525097895881316e-11   9.2094006089529882e-11   9.7813870137009034e-11   9.6297511021802036e-11   1.0173797464205851e-10   1.0014148025689325e-10   1.0525962211689644e-10   1.0358889569280207e-10   1.0834490489228704e-10   1.0660656337502489e-10   1.1096405903557975e-10   1.0916536186145351e-10   1.1309240866807328e-10   1.1124127183238205e-10   1.1470826610973789e-10   1.1281242691664701e-10   1.1576570658073874e-10   1.1382504106383902e-10   1.1623574963896414e-10   1.1424421381318090e-10   1.1453020982456323e-10   1.1205556864468510e-10   1.1392522929435785e-10   1.1141148412757321e-10   1.1285924292464640e-10   1.1033304638293865e-10   1.1131912956614507e-10   1.0880162235489188e-10   1.0928912833896174e-10   1.0679306582706768e-10   1.0678510003449350e-10   1.0432240288037196e-10   1.0383127156123011e-10   1.0141364478189087e-10   1.0045610820975001e-10   9.8094813810259871e-11   9.6692114389993864e-11   9.4397871530418941e-11   9.2575538758753313e-11   9.0358421693507862e-11   8.8146025533561920e-11   8.6015366305322695e-11   8.3446232745185058e-11   8.1410531104529208e-11   7.8521421458734700e-11   7.6588262877336808e-11   7.3419019887312080e-11   7.1595002422946405e-11   6.8188166617478243e-11   6.6478837318718138e-11   6.2879237360096445e-11   6.1289038813372205e-11   5.7543359788584168e-11   5.6075587315210854e-11   5.2231921140525689e-11   5.0888691048137115e-11   4.6996073320576787e-11   4.5778302515690862e-11   4.1886240272969729e-11   4.0793637426549643e-11   3.6951632367227432e-11   3.5982700717578273e-11   3.2239772471404965e-11   3.1391824237458080e-11   2.7796038278934541e-11   2.7065220544341812e-11   2.3663225294417632e-11   2.3044557112912344e-11   1.9881134689384619e-11   1.9368555053138143e-11   1.6486189993206037e-11   1.6072616204374726e-11   1.3511086314784345e-11   1.3188482195649879e-11   1.0984475471090201e-11   1.0743928755845834e-11   8.9306900530826221e-12   8.7624982193215352e-12   7.3695090905970685e-12   7.2632727987259375e-12   6.3159675692033121e-12   6.2606908142876493e-12   5.7802116350237482e-12   5.7644076444472459e-12   5.7674008825163684e-12   5.7792027393966466e-12   6.2776586644186424e-12   6.3049335930529817e-12   7.3060709045549059e-12   7.3365371152088385e-12   8.8427334233388894e-12   8.8640783926312629e-12   1.0872847320728548e-11   1.0872846368000882e-11   1.3376861498306542e-11   1.3343495515800301e-11   1.6330660947469020e-11   1.6252232150813554e-11   1.9705798990802011e-11   1.9571043574966547e-11   2.3469771239826344e-11   2.3267967855495196e-11   2.7586328630714443e-11   2.7307401636845843e-11   3.2015826523678472e-11   3.1650443020923462e-11   3.6715606503413177e-11   3.6255266214999796e-11   4.1640407204599978e-11   4.1077524338767917e-11   4.6742800205058267e-11   4.6070776509650737e-11   5.1973646789748635e-11   5.1186935097236775e-11   5.7282571186401855e-11   5.6376728835796566e-11   6.2618445716002898e-11   6.1590177337295842e-11   6.7929883185775959e-11   6.6777072436015332e-11   7.3165731785038360e-11   7.1887461727684147e-11   7.8275567717612637e-11   7.6872129649490711e-11   8.3210180830801457e-11   8.1683071468280766e-11   8.7922048566564990e-11   8.6273955613100756e-11   9.2365793679249811e-11   9.0600569901647471e-11   9.6498621316807604e-11   9.4621247358307404e-11   1.0028073128158283e-10   9.8297267525383629e-11   1.0367570118202837e-10   1.0159322904439267e-10   1.0665084214345516e-10   1.0447739551590690e-10   1.0917744205222949e-10   1.0692192409782055e-10   1.1123179503614535e-10   1.0890397399044252e-10   1.1279222433657366e-10   1.1040191930942409e-10   1.1380497653377090e-10   1.1135470511418665e-10   1.1423553390682907e-10   1.1172237840377712e-10   1.1207548632061317e-10   1.0908758638773212e-10   1.1147824664508450e-10   1.0844185758166186e-10   1.1045959893682192e-10   1.0740302782084103e-10   1.0899991675709306e-10   1.0594654032116709e-10   1.0707442876288818e-10   1.0403972447767822e-10   1.0469737996788172e-10   1.0169603927547802e-10   1.0189187623127711e-10   9.8938359051058588e-11   9.8684945919689074e-11   9.5793242139400261e-11   9.5107473006883607e-11   9.2290977648880346e-11   9.1193910665559905e-11   8.8465294904919916e-11   8.6981948517995718e-11   8.4353037487055099e-11   8.2512149791571419e-11   7.9993808640189754e-11   7.7827560790102866e-11   7.5429589988915600e-11   7.2973296382476448e-11   7.0704337287277037e-11   6.7996105536190717e-11   6.5863557128862769e-11   6.2943921101177062e-11   6.0953868706920769e-11   5.7865398187057107e-11   5.6022554850845441e-11   5.2809445582100393e-11   5.1117106668504362e-11   4.7824754731349180e-11   4.6284766179507737e-11   4.2959330806646035e-11   4.1572071348477419e-11   3.8260030387775172e-11   3.7024407897194100e-11   3.3772110205396979e-11   3.2685572213651985e-11   2.9538791292555535e-11   2.8597349568908276e-11   2.5600842740710042e-11   2.4799111700315565e-11   2.1996189070537425e-11   2.1327437639775445e-11   1.8759544997282231e-11   1.8215761437634157e-11   1.5922081108924611e-11   1.5494050173646499e-11   1.3511123675363582e-11   1.3188515358131080e-11   1.1549891482800288e-11   1.1321360499886757e-11   1.0057272222421281e-11   9.9105672752475191e-12   9.0476405930978211e-12   8.9697223537758780e-12   8.5307198646838087e-12   8.5078865522715168e-12   8.5114882377427580e-12   8.5295075738643968e-12   8.9901309014537884e-12   9.0343771744257566e-12   9.9620382499030543e-12   1.0017633168677205e-11   1.1417850275811291e-11   1.1469806255603292e-11   1.3343546712893768e-11   1.3376911213686986e-11   1.5720582058947425e-11   1.5720581586557738e-11   1.8526064179847149e-11   1.8478246562428070e-11   2.1732974773850382e-11   2.1623348343988369e-11   2.5310429573242035e-11   2.5125597915092256e-11   2.9223975777704779e-11   2.8951266741379231e-11   3.3435923853968064e-11   3.3063511594943857e-11   3.7905710508423300e-11   3.7422729376559191e-11   4.2590289335073654e-11   4.1986938515765444e-11   4.7444545376718995e-11   4.6712183277686780e-11   5.2421729610354209e-11   5.1552957084189111e-11   5.7473909167550484e-11   5.6462640767621764e-11   6.2552428958310879e-11   6.1393951543782376e-11   6.7608380252035401e-11   6.6299398374348879e-11   7.2593071702157769e-11   7.1131739337612675e-11   7.7458498281214844e-11   7.5844436600578447e-11   8.2157803610506062e-11   8.0392104612864248e-11   8.6645731233000613e-11   8.4730947203654295e-11   9.0879060485558019e-11   8.8819179369818733e-11   9.4817022768981311e-11   9.2617429686126486e-11   9.8421694211018211e-11   9.6089119459242007e-11   1.0165836058529419e-10   9.9200814615544458e-11   1.0449585659844995e-10   1.0192255282056387e-10   1.0690678867029158e-10   1.0422805016689807e-10   1.0886864356317806e-10   1.0609587958271832e-10   1.1035996779907561e-10   1.0750488218893547e-10   1.1131968596413275e-10   1.0838730750727535e-10   1.1170824347875748e-10   1.0869846369333555e-10   1.0911524003867113e-10   1.0564152730686834e-10   1.0853304417372977e-10   1.0499908062305858e-10   1.0757288811192721e-10   1.0400851309711339e-10   1.0620895856728521e-10   1.0263964869667480e-10   1.0440777209753160e-10   1.0085164830251216e-10   1.0218179319284506e-10   9.8656277152255453e-11   9.9552758593196250e-11   9.6075063712824178e-11   9.6545988280728533e-11   9.3132859684833862e-11   9.3190439007721258e-11   8.9858000363445179e-11   8.9518427136766800e-11   8.6282025030986209e-11   8.5565316304563874e-11   8.2439372516813801e-11   8.1369177078012744e-11   7.8367049731384767e-11   7.6970420431253950e-11   7.4104275337775391e-11   7.2411408622702764e-11   6.9692102098216032e-11   6.773604