<?xml version="1.0"?>
<VTKFile type="UnstructuredGrid"  version="0.1"  >
<UnstructuredGrid>
<Piece  NumberOfPoints="4225" NumberOfCells="8192">
<Points>
<DataArray  type="Float64"  NumberOfComponents="3"  format="ascii">0 0 0  0.015625 0 0  0.03125 0 0  0.046875 0 0  0.0625 0 0  0.078125 0 0  0.09375 0 0  0.109375 0 0  0.125 0 0  0.140625 0 0  0.15625 0 0  0.171875 0 0  0.1875 0 0  0.203125 0 0  0.21875 0 0  0.234375 0 0  0.25 0 0  0.265625 0 0  0.28125 0 0  0.296875 0 0  0.3125 0 0  0.328125 0 0  0.34375 0 0  0.359375 0 0  0.375 0 0  0.390625 0 0  0.40625 0 0  0.421875 0 0  0.4375 0 0  0.453125 0 0  0.46875 0 0  0.484375 0 0  0.5 0 0  0.515625 0 0  0.53125 0 0  0.546875 0 0  0.5625 0 0  0.578125 0 0  0.59375 0 0  0.609375 0 0  0.625 0 0  0.640625 0 0  0.65625 0 0  0.671875 0 0  0.6875 0 0  0.703125 0 0  0.71875 0 0  0.734375 0 0  0.75 0 0  0.765625 0 0  0.78125 0 0  0.796875 0 0  0.8125 0 0  0.828125 0 0  0.84375 0 0  0.859375 0 0  0.875 0 0  0.890625 0 0  0.90625 0 0  0.921875 0 0  0.9375 0 0  0.953125 0 0  0.96875 0 0  0.984375 0 0  1 0 0  0 0.015625 0  0.015625 0.015625 0  0.03125 0.015625 0  0.046875 0.015625 0  0.0625 0.015625 0  0.078125 0.015625 0  0.09375 0.015625 0  0.109375 0.015625 0  0.125 0.015625 0  0.140625 0.015625 0  0.15625 0.015625 0  0.171875 0.015625 0  0.1875 0.015625 0  0.203125 0.015625 0  0.21875 0.015625 0  0.234375 0.015625 0  0.25 0.015625 0  0.265625 0.015625 0  0.28125 0.015625 0  0.296875 0.015625 0  0.3125 0.015625 0  0.328125 0.015625 0  0.34375 0.015625 0  0.359375 0.015625 0  0.375 0.015625 0  0.390625 0.015625 0  0.40625 0.015625 0  0.421875 0.015625 0  0.4375 0.015625 0  0.453125 0.015625 0  0.46875 0.015625 0  0.484375 0.015625 0  0.5 0.015625 0  0.515625 0.015625 0  0.53125 0.015625 0  0.546875 0.015625 0  0.5625 0.015625 0  0.578125 0.015625 0  0.59375 0.015625 0  0.609375 0.015625 0  0.625 0.015625 0  0.640625 0.015625 0  0.65625 0.015625 0  0.671875 0.015625 0  0.6875 0.015625 0  0.703125 0.015625 0  0.71875 0.015625 0  0.734375 0.015625 0  0.75 0.015625 0  0.765625 0.015625 0  0.78125 0.015625 0  0.796875 0.015625 0  0.8125 0.015625 0  0.828125 0.015625 0  0.84375 0.015625 0  0.859375 0.015625 0  0.875 0.015625 0  0.890625 0.015625 0  0.90625 0.015625 0  0.921875 0.015625 0  0.9375 0.015625 0  0.953125 0.015625 0  0.96875 0.015625 0  0.984375 0.015625 0  1 0.015625 0  0 0.03125 0  0.015625 0.03125 0  0.03125 0.03125 0  0.046875 0.03125 0  0.0625 0.03125 0  0.078125 0.03125 0  0.09375 0.03125 0  0.109375 0.03125 0  0.125 0.03125 0  0.140625 0.03125 0  0.15625 0.03125 0  0.171875 0.03125 0  0.1875 0.03125 0  0.203125 0.03125 0  0.21875 0.03125 0  0.234375 0.03125 0  0.25 0.03125 0  0.265625 0.03125 0  0.28125 0.03125 0  0.296875 0.03125 0  0.3125 0.03125 0  0.328125 0.03125 0  0.34375 0.03125 0  0.359375 0.03125 0  0.375 0.03125 0  0.390625 0.03125 0  0.40625 0.03125 0  0.421875 0.03125 0  0.4375 0.03125 0  0.453125 0.03125 0  0.46875 0.03125 0  0.484375 0.03125 0  0.5 0.03125 0  0.515625 0.03125 0  0.53125 0.03125 0  0.546875 0.03125 0  0.5625 0.03125 0  0.578125 0.03125 0  0.59375 0.03125 0  0.609375 0.03125 0  0.625 0.03125 0  0.640625 0.03125 0  0.65625 0.03125 0  0.671875 0.03125 0  0.6875 0.03125 0  0.703125 0.03125 0  0.71875 0.03125 0  0.734375 0.03125 0  0.75 0.03125 0  0.765625 0.03125 0  0.78125 0.03125 0  0.796875 0.03125 0  0.8125 0.03125 0  0.828125 0.03125 0  0.84375 0.03125 0  0.859375 0.03125 0  0.875 0.03125 0  0.890625 0.03125 0  0.90625 0.03125 0  0.921875 0.03125 0  0.9375 0.03125 0  0.953125 0.03125 0  0.96875 0.03125 0  0.984375 0.03125 0  1 0.03125 0  0 0.046875 0  0.015625 0.046875 0  0.03125 0.046875 0  0.046875 0.046875 0  0.0625 0.046875 0  0.078125 0.046875 0  0.09375 0.046875 0  0.109375 0.046875 0  0.125 0.046875 0  0.140625 0.046875 0  0.15625 0.046875 0  0.171875 0.046875 0  0.1875 0.046875 0  0.203125 0.046875 0  0.21875 0.046875 0  0.234375 0.046875 0  0.25 0.046875 0  0.265625 0.046875 0  0.28125 0.046875 0  0.296875 0.046875 0  0.3125 0.046875 0  0.328125 0.046875 0  0.34375 0.046875 0  0.359375 0.046875 0  0.375 0.046875 0  0.390625 0.046875 0  0.40625 0.046875 0  0.421875 0.046875 0  0.4375 0.046875 0  0.453125 0.046875 0  0.46875 0.046875 0  0.484375 0.046875 0  0.5 0.046875 0  0.515625 0.046875 0  0.53125 0.046875 0  0.546875 0.046875 0  0.5625 0.046875 0  0.578125 0.046875 0  0.59375 0.046875 0  0.609375 0.046875 0  0.625 0.046875 0  0.640625 0.046875 0  0.65625 0.046875 0  0.671875 0.046875 0  0.6875 0.046875 0  0.703125 0.046875 0  0.71875 0.046875 0  0.734375 0.046875 0  0.75 0.046875 0  0.765625 0.046875 0  0.78125 0.046875 0  0.796875 0.046875 0  0.8125 0.046875 0  0.828125 0.046875 0  0.84375 0.046875 0  0.859375 0.046875 0  0.875 0.046875 0  0.890625 0.046875 0  0.90625 0.046875 0  0.921875 0.046875 0  0.9375 0.046875 0  0.953125 0.046875 0  0.96875 0.046875 0  0.984375 0.046875 0  1 0.046875 0  0 0.0625 0  0.015625 0.0625 0  0.03125 0.0625 0  0.046875 0.0625 0  0.0625 0.0625 0  0.078125 0.0625 0  0.09375 0.0625 0  0.109375 0.0625 0  0.125 0.0625 0  0.140625 0.0625 0  0.15625 0.0625 0  0.171875 0.0625 0  0.1875 0.0625 0  0.203125 0.0625 0  0.21875 0.0625 0  0.234375 0.0625 0  0.25 0.0625 0  0.265625 0.0625 0  0.28125 0.0625 0  0.296875 0.0625 0  0.3125 0.0625 0  0.328125 0.0625 0  0.34375 0.0625 0  0.359375 0.0625 0  0.375 0.0625 0  0.390625 0.0625 0  0.40625 0.0625 0  0.421875 0.0625 0  0.4375 0.0625 0  0.453125 0.0625 0  0.46875 0.0625 0  0.484375 0.0625 0  0.5 0.0625 0  0.515625 0.0625 0  0.53125 0.0625 0  0.546875 0.0625 0  0.5625 0.0625 0  0.578125 0.0625 0  0.59375 0.0625 0  0.609375 0.0625 0  0.625 0.0625 0  0.640625 0.0625 0  0.65625 0.0625 0  0.671875 0.0625 0  0.6875 0.0625 0  0.703125 0.0625 0  0.71875 0.0625 0  0.734375 0.0625 0  0.75 0.0625 0  0.765625 0.0625 0  0.78125 0.0625 0  0.796875 0.0625 0  0.8125 0.0625 0  0.828125 0.0625 0  0.84375 0.0625 0  0.859375 0.0625 0  0.875 0.0625 0  0.890625 0.0625 0  0.90625 0.0625 0  0.921875 0.0625 0  0.9375 0.0625 0  0.953125 0.0625 0  0.96875 0.0625 0  0.984375 0.0625 0  1 0.0625 0  0 0.078125 0  0.015625 0.078125 0  0.03125 0.078125 0  0.046875 0.078125 0  0.0625 0.078125 0  0.078125 0.078125 0  0.09375 0.078125 0  0.109375 0.078125 0  0.125 0.078125 0  0.140625 0.078125 0  0.15625 0.078125 0  0.171875 0.078125 0  0.1875 0.078125 0  0.203125 0.078125 0  0.21875 0.078125 0  0.234375 0.078125 0  0.25 0.078125 0  0.265625 0.078125 0  0.28125 0.078125 0  0.296875 0.078125 0  0.3125 0.078125 0  0.328125 0.078125 0  0.34375 0.078125 0  0.359375 0.078125 0  0.375 0.078125 0  0.390625 0.078125 0  0.40625 0.078125 0  0.421875 0.078125 0  0.4375 0.078125 0  0.453125 0.078125 0  0.46875 0.078125 0  0.484375 0.078125 0  0.5 0.078125 0  0.515625 0.078125 0  0.53125 0.078125 0  0.546875 0.078125 0  0.5625 0.078125 0  0.578125 0.078125 0  0.59375 0.078125 0  0.609375 0.078125 0  0.625 0.078125 0  0.640625 0.078125 0  0.65625 0.078125 0  0.671875 0.078125 0  0.6875 0.078125 0  0.703125 0.078125 0  0.71875 0.078125 0  0.734375 0.078125 0  0.75 0.078125 0  0.765625 0.078125 0  0.78125 0.078125 0  0.796875 0.078125 0  0.8125 0.078125 0  0.828125 0.078125 0  0.84375 0.078125 0  0.859375 0.078125 0  0.875 0.078125 0  0.890625 0.078125 0  0.90625 0.078125 0  0.921875 0.078125 0  0.9375 0.078125 0  0.953125 0.078125 0  0.96875 0.078125 0  0.984375 0.078125 0  1 0.078125 0  0 0.09375 0  0.015625 0.09375 0  0.03125 0.09375 0  0.046875 0.09375 0  0.0625 0.09375 0  0.078125 0.09375 0  0.09375 0.09375 0  0.109375 0.09375 0  0.125 0.09375 0  0.140625 0.09375 0  0.15625 0.09375 0  0.171875 0.09375 0  0.1875 0.09375 0  0.203125 0.09375 0  0.21875 0.09375 0  0.234375 0.09375 0  0.25 0.09375 0  0.265625 0.09375 0  0.28125 0.09375 0  0.296875 0.09375 0  0.3125 0.09375 0  0.328125 0.09375 0  0.34375 0.09375 0  0.359375 0.09375 0  0.375 0.09375 0  0.390625 0.09375 0  0.40625 0.09375 0  0.421875 0.09375 0  0.4375 0.09375 0  0.453125 0.09375 0  0.46875 0.09375 0  0.484375 0.09375 0  0.5 0.09375 0  0.515625 0.09375 0  0.53125 0.09375 0  0.546875 0.09375 0  0.5625 0.09375 0  0.578125 0.09375 0  0.59375 0.09375 0  0.609375 0.09375 0  0.625 0.09375 0  0.640625 0.09375 0  0.65625 0.09375 0  0.671875 0.09375 0  0.6875 0.09375 0  0.703125 0.09375 0  0.71875 0.09375 0  0.734375 0.09375 0  0.75 0.09375 0  0.765625 0.09375 0  0.78125 0.09375 0  0.796875 0.09375 0  0.8125 0.09375 0  0.828125 0.09375 0  0.84375 0.09375 0  0.859375 0.09375 0  0.875 0.09375 0  0.890625 0.09375 0  0.90625 0.09375 0  0.921875 0.09375 0  0.9375 0.09375 0  0.953125 0.09375 0  0.96875 0.09375 0  0.984375 0.09375 0  1 0.09375 0  0 0.109375 0  0.015625 0.109375 0  0.03125 0.109375 0  0.046875 0.109375 0  0.0625 0.109375 0  0.078125 0.109375 0  0.09375 0.109375 0  0.109375 0.109375 0  0.125 0.109375 0  0.140625 0.109375 0  0.15625 0.109375 0  0.171875 0.109375 0  0.1875 0.109375 0  0.203125 0.109375 0  0.21875 0.109375 0  0.234375 0.109375 0  0.25 0.109375 0  0.265625 0.109375 0  0.28125 0.109375 0  0.296875 0.109375 0  0.3125 0.109375 0  0.328125 0.109375 0  0.34375 0.109375 0  0.359375 0.109375 0  0.375 0.109375 0  0.390625 0.109375 0  0.40625 0.109375 0  0.421875 0.109375 0  0.4375 0.109375 0  0.453125 0.109375 0  0.46875 0.109375 0  0.484375 0.109375 0  0.5 0.109375 0  0.515625 0.109375 0  0.53125 0.109375 0  0.546875 0.109375 0  0.5625 0.109375 0  0.578125 0.109375 0  0.59375 0.109375 0  0.609375 0.109375 0  0.625 0.109375 0  0.640625 0.109375 0  0.65625 0.109375 0  0.671875 0.109375 0  0.6875 0.109375 0  0.703125 0.109375 0  0.71875 0.109375 0  0.734375 0.109375 0  0.75 0.109375 0  0.765625 0.109375 0  0.78125 0.109375 0  0.796875 0.109375 0  0.8125 0.109375 0  0.828125 0.109375 0  0.84375 0.109375 0  0.859375 0.109375 0  0.875 0.109375 0  0.890625 0.109375 0  0.90625 0.109375 0  0.921875 0.109375 0  0.9375 0.109375 0  0.953125 0.109375 0  0.96875 0.109375 0  0.984375 0.109375 0  1 0.109375 0  0 0.125 0  0.015625 0.125 0  0.03125 0.125 0  0.046875 0.125 0  0.0625 0.125 0  0.078125 0.125 0  0.09375 0.125 0  0.109375 0.125 0  0.125 0.12
[...]
<CellData  Scalars="f_176329"> 
<DataArray  type="Float64"  Name="f_176329"  format="ascii">1.9112841810724767e-15   2.1286006106764867e-15   5.5530058342007157e-15   8.7749468492850894e-15   1.1004996134536717e-14   1.9694162720887706e-14   1.8296283609946203e-14   3.5049750233233726e-14   2.7361985352853623e-14   5.4716973542529446e-14   3.8115280519822301e-14   7.8508768397395818e-14   5.0452737466966827e-14   1.0619648561204392e-13   6.4255598473491360e-14   1.3751365853629723e-13   7.9390964635499738e-14   1.7215875235750345e-13   9.5713090268073732e-14   2.0979812654392035e-13   1.1306479314244386e-13   2.5006927639741890e-13   1.3127897153895577e-13   2.9258433894590346e-13   1.5018021526793474e-13   3.3693383623735297e-13   1.6958649594470356e-13   3.8269062323054971e-13   1.8931092061194878e-13   4.2941400392788059e-13   2.0916353196975912e-13   4.7665397691275699e-13   2.2895313797505117e-13   5.2395556981687729e-13   2.4848915330728836e-13   5.7086322126498297e-13   2.6758343486817248e-13   6.1692516827465419e-13   2.8605209378895335e-13   6.6169779681533590e-13   3.0371726642388116e-13   7.0474991386294742e-13   3.2040882726052308e-13   7.4566689969064174e-13   3.3596602738985667e-13   7.8405470051453942e-13   3.5023904259154929e-13   8.1954362312020038e-13   3.6309041621778099e-13   8.5179189474320524e-13   3.7439638297818728e-13   8.8048895412710823e-13   3.8404806087516757e-13   9.0535844200613515e-13   3.9195249977228369e-13   9.2616086219155539e-13   3.9803357656811287e-13   9.4269588764458703e-13   4.0223272825139607e-13   9.5480428938047616e-13   4.0450951594145564e-13   9.6236946956152291e-13   4.0484201427776221e-13   9.6531858413062655e-13   4.0322702258443923e-13   9.6362324396838168e-13   3.9968009565457096e-13   9.5729978808413214e-13   3.9423539395341354e-13   9.4640912600385486e-13   3.8694535461815065e-13   9.3105615101179665e-13   3.7788018644242420e-13   9.1138872981149625e-13   3.6712719365171699e-13   8.8759627834847281e-13   3.5478993519199535e-13   8.5990793756023064e-13   3.4098722728278217e-13   8.2859036669071147e-13   3.2585199916928010e-13   7.9394517513190603e-13   3.0953001289578987e-13   7.5630601791288692e-13   2.9217845949992173e-13   7.1603538257876226e-13   2.7396444513788635e-13   6.7352109842310615e-13   2.5506338170240596e-13   6.2917260180132071e-13   2.3565729747170926e-13   5.8341699336809341e-13   2.1593308399228461e-13   5.3669492537159032e-13   1.9608069616308010e-13   4.8945635844845930e-13   1.7629132277279700e-13   4.4215622896870782e-13   1.5675554515112065e-13   3.9525006849756693e-13   1.3766150169462961e-13   3.4918961774721772e-13   1.1919307588216306e-13   3.0441847717313601e-13   1.0152812531113317e-13   2.6136783612570645e-13   8.4836768835515612e-14   2.2045232178719414e-13   6.9279748424963690e-14   1.8206600787009848e-13   5.5006881837806920e-14   1.4657862151706556e-13   4.2155621844895753e-14   1.1433198489429773e-13   3.0849738861252347e-14   8.5636725154577816e-14   2.1198133074867541e-14   6.0769282544046789e-14   1.3294061178903586e-14   3.9969223669168164e-14   7.2103242558094478e-15   2.3437086991018784e-14   3.0510971736371114e-15   1.1328990219770318e-14   6.1606336828571471e-16   3.7902591507756068e-15   4.6098890134688151e-16   9.6478932081328539e-16   1.3737728608828880e-14   1.1106334701114547e-14   2.4907142192523664e-14   2.4506314050738463e-14   3.9811491380149974e-14   3.7581207721833849e-14   5.9012936162852894e-14   5.4409201364826532e-14   8.2331691198379906e-14   7.4649451660965418e-14   1.0954100281392395e-13   9.8086129174015923e-14   1.4037840049562365e-13   1.2449094007950053e-13   1.7454679576314717e-13   1.5360905089141110e-13   2.1171707489277334e-13   1.8515986100515929e-13   2.5153122240306050e-13   2.1883945061897277e-13   2.9360576147924224e-13   2.5432343944477789e-13   3.3753544722087852e-13   2.9127008644728017e-13   3.8289717072086151e-13   3.2932357142982183e-13   4.2925403504974418e-13   3.6811741776861278e-13   4.7615956364137436e-13   4.0727802004473913e-13   5.2316200055001483e-13   4.4642824125799728e-13   5.6980866129507998e-13   4.8519104447789054e-13   6.1565029250170809e-13   5.2319312375982402e-13   6.6024539826168328e-13   5.6006849921450275e-13   7.0316449178309605e-13   5.9546204154208928e-13   7.4399423124826442e-13   6.2903289214304530e-13   7.8234140014418214e-13   6.6045774575835697e-13   8.1783669383517192e-13   6.8943396410480903e-13   8.5013827569870030e-13   7.1568249046811312e-13   8.7893506879217649e-13   7.3895053715425961e-13   9.0394975130000587e-13   7.5901402003017359e-13   9.2494142688646486e-13   7.7567971658945132e-13   9.4170794424171349e-13   7.8878712677140705e-13   9.5408784354712446e-13   7.9821001870957145e-13   9.6196191103522527e-13   8.0385764442400137e-13   9.6525432680728485e-13   8.0567561378702977e-13   9.6393339463569319e-13   8.0364641834219700e-13   9.5801184697988819e-13   7.9778959990501514e-13   9.4754672209232046e-13   7.8816156241900924e-13   9.3263881451991152e-13   7.7485502873094761e-13   9.1343170421799594e-13   7.5799814763561180e-13   8.9011037363634595e-13   7.3775325973619321e-13   8.6289942612925679e-13   7.1431533401063983e-13   8.3206092294810450e-13   6.8791009019410907e-13   7.9789185934348929e-13   6.5879182495502368e-13   7.6072130444811099e-13   6.2724096283460709e-13   7.2090723229178130e-13   5.9356135568949034e-13   6.7883307447138030e-13   5.5807735639242094e-13   6.3490402777597043e-13   5.2113069510911249e-13   5.8954315221989400e-13   4.8307718829961424e-13   5.4318729720538059e-13   4.4428331196092951e-13   4.9628289490189458e-13   4.0512267231077709e-13   4.4928166152345172e-13   3.6597240769665688e-13   4.0263624776021376e-13   3.2720955658720456e-13   3.5679588041339728e-13   2.8920742644639261e-13   3.1220203713904642e-13   2.5233199860281848e-13   2.6928419598175640e-13   2.1693840359729253e-13   2.2845570069105367e-13   1.8336750103271165e-13   1.9010978164992810e-13   1.5194259680778303e-13   1.5461577070037883e-13   1.2296632923726096e-13   1.2231554622347701e-13   9.6717753873902974e-14   9.3520242061376189e-14   7.3449654750070120e-14   6.8507250238226596e-14   5.3386107233686942e-14   4.7517527317019285e-14   3.6720316570771088e-14   3.0753417686450665e-14   2.3612751055705596e-14   1.8373803809378459e-14   1.4189837951996501e-14   1.0518440202624056e-14   8.5412705442352671e-15   7.4287069750080903e-15   6.7174339054439923e-15   7.2758363544206536e-15   1.0103803108176759e-14   3.4599501976532644e-14   2.7275118921720761e-14   4.8555890575217466e-14   4.9566812701367273e-14   6.5266612018966905e-14   6.5248104746661202e-14   8.5387279277310502e-14   8.5385333770821818e-14   1.0865662922471655e-13   1.0872921564526116e-13   1.3484478457021681e-13   1.3501272703236992e-13   1.6369897750280232e-13   1.6398252267791809e-13   1.9494111730144972e-13   1.9535965218396587e-13   2.2827022567038053e-13   2.2884185714951254e-13   2.6336528021494272e-13   2.6410662748201293e-13   2.9988827682828146e-13   3.0081431202639939e-13   3.3748747103098604e-13   3.3861137896454349e-13   3.7580075919601239e-13   3.7713381332038021e-13   4.1445916295994216e-13   4.1601061870753032e-13   4.5309038133568242e-13   4.5486738818410327e-13   4.9132237551832643e-13   4.9332990891906347e-13   5.2878695152720186e-13   5.3102776550655104e-13   5.6512330598451007e-13   5.6759790699505298e-13   5.9998150074699397e-13   6.0268814308684941e-13   6.3302583301020005e-13   6.3596053583647270e-13   6.6393806828488316e-13   6.6709465415210073e-13   6.9242050518736602e-13   6.9579065968967768e-13   7.1819884248896745e-13   7.2177219444394467e-13   7.4102482076975994e-13   7.4478904223433264e-13   7.6067861334290003e-13   7.6461953841861634e-13   7.7697094331982207e-13   7.8107270463839788e-13   7.8974490643512299e-13   7.9399008806677824e-13   7.9887748216071089e-13   8.0324728735147472e-13   8.0428071847515681e-13   8.0875515074085950e-13   8.0590257889957185e-13   8.1046063460057971e-13   8.0372744365250627e-13   8.0834731429662654e-13   7.9777626006088320e-13   8.0243554233251678e-13   7.8810634088051477e-13   7.9278225239109821e-13   7.7481081231984151e-13   7.7948041100493310e-13   7.5801771719981399e-13   7.6265812225217844e-13   7.3788878183529602e-13   7.4247739401049181e-13   7.1461785851722725e-13   7.1913257779095571e-13   6.8842905865281103e-13   6.9284849698209966e-13   6.5957459442361664e-13   6.6387828170985346e-13   6.2833234980997833e-13   6.3250093099814765e-13   5.9500320449315524e-13   5.9901862593024075e-13   5.5990813618091866e-13   5.6375381945068264e-13   5.2338512939608132e-13   5.2704613095142248e-13   4.8578592054107661e-13   4.8924907556507950e-13   4.4747261044112045e-13   4.5072665964661496e-13   4.0881417715736649e-13   4.1184987514587988e-13   3.7018292247841030e-13   3.7299312680667130e-13   3.3195088647803039e-13   3.3453062639919680e-13   2.9448626453615269e-13   2.9683278889070624e-13   2.5814986143795885e-13   2.6026266510349349e-13   2.2329161658820257e-13   2.2517244534305649e-13   1.9024723386056852e-13   1.9190006753116286e-13   1.5933494852416072e-13   1.6076596260872437e-13   1.3085246227941465e-13   1.3206996842853758e-13   1.0507407580908498e-13   1.0608844185265088e-13   8.2248046237738053e-14   8.3071596844874355e-14   6.2594194419703313e-14   6.3241094436644037e-14   4.6301785143142966e-14   4.6787908920516262e-14   3.3527694373281441e-14   3.3870496056861887e-14   2.4395044940917039e-14   2.4613287588992655e-14   1.8990803752726264e-14   1.9105659398516328e-14   1.7355183604703634e-14   1.7401220927480580e-14   2.0400570142523139e-14   1.9454527381501563e-14   2.0860340119269667e-14   2.7918212259495018e-14   6.4807831811144127e-14   5.0601417453490125e-14   8.1708338070652752e-14   8.3911338343539298e-14   1.0171680287217926e-13   1.0172337950534701e-13   1.2490963242539400e-13   1.2491233749595803e-13   1.5096224025959339e-13   1.5096751158495118e-13   1.7962572837592378e-13   1.7962865755591111e-13   2.1062462686826959e-13   2.1062425248819984e-13   2.4366032352866776e-13   2.4365601034490402e-13   2.7841458219258043e-13   2.7840574032989321e-13   3.1455265021431462e-13   3.1453872638210850e-13   3.5172647064751197e-13   3.5170695258449829e-13   3.8957802439633674e-13   3.8955244719030792e-13   4.2774277238678401e-13   4.2771072479754272e-13   4.6585316307964377e-13   4.6581429299194831e-13   5.0354217045745662e-13   5.0349618935445214e-13   5.4044682775316461e-13   5.4039351423213911e-13   5.7621172253036980e-13   5.7615092489470073e-13   6.1049241920008091e-13   6.1042405724279107e-13   6.4295877596499627e-13   6.4288284193177867e-13   6.7329812420109943e-13   6.7321468300614270e-13   7.0121827957076351e-13   7.0112746825694221e-13   7.2645035588706926e-13   7.2635238235556707e-13   7.4875135463322378e-13   7.4864649568278065e-13   7.6790650515689083e-13   7.6779510383371942e-13   7.8373133303253473e-13   7.8361379535956685e-13   7.9607343665464648e-13   7.9595022770149300e-13   8.0481395491337907e-13   8.0468559437010471e-13   8.0986871196165560e-13   8.0973576907569552e-13   8.1118902781061769e-13   8.1105211596908469e-13   8.0876218718751670e-13   8.0862195795667026e-13   8.0261156195145934e-13   8.0246869885375968e-13   7.9279638605450768e-13   7.9265159794225976e-13   7.7941118506184626e-13   7.7926519933266359e-13   7.6258486583098236e-13   7.6243842138338878e-13   7.4247947503600415e-13   7.4233331519312814e-13   7.1928863862700580e-13   7.1914350394831472e-13   6.9323569706025859e-13   6.9309231823862765e-13   6.6457155444400174e-13   6.6443064523291309e-13   6.3357226213145508e-13   6.3343451253079596e-13   6.0053636027278218e-13   6.0040242982886548e-13   5.6578200268079693e-13   5.6565251417794633e-13   5.2964389281927679e-13   5.2951942626516954e-13   4.9247006044080238e-13   4.9235114748995363e-13   4.5461850989334567e-13   4.5450562872010591e-13   4.1645377230269803e-13   4.1634734300529301e-13   3.7834339498272279e-13   3.7824377552089192e-13   3.4065440172042100e-13   3.4056188448363550e-13   3.0374975816759030e-13   3.0366456713188559e-13   2.6798487625601532e-13   2.6790716482313705e-13   2.3370419138908774e-13   2.3363404088231410e-13   2.0123784528780760e-13   2.0117526417414119e-13   1.7089850651377131e-13   1.7084343031844692e-13   1.4297835917118101e-13   1.4293065116723883e-13   1.1774628882274445e-13   1.1770574155370232e-13   9.5445292677815860e-14   9.5411630501320970e-14   7.6290139072966165e-14   7.6263022044775777e-14   6.0465299303769320e-14   6.0444328962050921e-14   4.8123174110083240e-14   4.8107901076518311e-14   3.9382632346393252e-14   3.9372569170092527e-14   3.4327957539401686e-14   3.4322518308332457e-14   3.3008682443365792e-14   3.3006501784918111e-14   3.5380719838573985e-14   3.5439987044930956e-14   4.3445372970541650e-14   4.1472140915245395e-14   4.1620378628192095e-14   5.5545028181959729e-14   1.0416066945995697e-13   8.0903372712876510e-14   1.2351887418117376e-13   1.2720995821482668e-13   1.4659211272201221e-13   1.4655768043059161e-13   1.7249652027981390e-13   1.7249357707281889e-13   2.0090033637671859e-13   2.0090029151789245e-13   2.3153734619820649e-13   2.3153723150196026e-13   2.6411281152706887e-13   2.6411276544963261e-13   2.9831292649605624e-13   2.9831295406978431e-13   3.3380826929775278e-13   3.3380838018959883e-13   3.7025696052652189e-13   3.7025717770421434e-13   4.0730795235381901e-13   4.0730830181021655e-13   4.4460440633917250e-13   4.4460491230087944e-13   4.8178712671399958e-13   4.8178781018066034e-13   5.1849801722197954e-13   5.1849889570171734e-13   5.5438352816693380e-13   5.5438461582439440e-13   5.8909806027159631e-13   5.8909936814714530e-13   6.2230729236644789e-13   6.2230882855937103e-13   6.5369140069221468e-13   6.5369317053132711e-13   6.8294813878029764e-13   6.8295014492642947e-13   7.0979574810617467e-13   7.0979799066239571e-13   7.3397567146153641e-13   7.3397814804343857e-13   7.5525504299046737e-13   7.5525774882187920e-13   7.7342893076369662e-13   7.7343185877318494e-13   7.8832231038360382e-13   7.8832545127223199e-13   7.9979175052329248e-13   7.9979509292249928e-13   8.0772679428496694e-13   8.0773032483325911e-13   8.1205102290345999e-13   8.1205472643256965e-13   8.1272279177211987e-13   8.1272665140942327e-13   8.0973563142092189e-13   8.0973962881520198e-13   8.0311830988613203e-13   8.0312242533257245e-13   7.9293455560951819e-13   7.9293876829249172e-13   7.7928244375918591e-13   7.7928673190627263e-13   7.6229345164152008e-13   7.6229779278365173e-13   7.4213119255062342e-13   7.4213556370436888e-13   7.1898984007039828e-13   7.1899421798329098e-13   6.9309225808890098e-13   6.9309661944979037e-13   6.6468785447355213e-13   6.6469217613751038e-13   6.3405017915686895e-13   6.3405443838578124e-13   6.0147428967983469e-13   6.0147846436712385e-13   5.6727390968641876e-13   5.6727797852453765e-13   5.3177840751404948e-13   5.3178235027232471e-13   4.9532962424815084e-13   4.9533342191442894e-13   4.5827858160346192e-13   4.5828221658984006e-13   4.2098210137438067e-13   4.2098555768822996e-13   3.8379936907062935e-13   3.8380263247161979e-13   3.4708847475108080e-13   3.4709153288708804e-13   3.1120296442907669e-13   3.1120580695693205e-13   2.7648843522152249e-13   2.7649105390698493e-13   2.4327920705103395e-13   2.4328159586924931e-13   2.1189510296012321e-13   2.1189725816249758e-13   1.8263836900177137e-13   1.8264028921316681e-13   1.5579076342663348e-13   1.5579244974058466e-13   1.3161084315447120e-13   1.3161229931492547e-13   1.1033147374902587e-13   1.1033270644877680e-13   9.2157586974632563e-14   9.2158606387279479e-14   7.7264207951495862e-14   7.7265028513569383e-14   6.5794771764108667e-14   6.5795413000083601e-14   5.7859747946326598e-14   5.7860233907130777e-14   5.3535586321275485e-14   5.3535942749136549e-14   5.2863972962581051e-14   5.2864239203196018e-14   5.5854291571623077e-14   5.5851563509314500e-14   6.2364787227556611e-14   6.2474531746239340e-14   7.5857188419956129e-14   7.2465926566713377e-14   6.9505869488853964e-14   9.2390858189131139e-14   1.5228707518178622e-13   1.1789305065693212e-13   1.7353063649109788e-13   1.7903884486759280e-13   1.9939398077690307e-13   1.9931139348188979e-13   2.2767707958453083e-13   2.2767535022822323e-13   2.5805683516732599e-13   2.5805693174300809e-13   2.9024742614044819e-13   2.9024750272585342e-13   3.2393862098219559e-13   3.2393878295664439e-13   3.5880594390301074e-13   3.5880612372231710e-13   3.9451360013027202e-13   3.9451376667209575e-13   4.3071768818012849e-13   4.3071783087508409e-13   4.6706952508811915e-13   4.6706964190392558e-13   5.0321900874453185e-13   5.0321910094433899e-13   5.3881798982553970e-13   5.3881805958744861e-13   5.7352362388430424e-13   5.7352367327548369e-13   6.0700167221429369e-13   6.0700170286949945e-13   6.3892971999262867e-13   6.3892973306626682e-13   6.6900028082041421e-13   6.6900027707870229e-13   6.9692375757796029e-13   6.9692373747820165e-13   7.2243123122359453e-13   7.2243119503601490e-13   7.4527705037923075e-13   7.4527699826417029e-13   7.6524119707839572e-13   7.6524112914542950e-13   7.8213140554196836e-13   7.8213132191708006e-13   7.9578501374832069e-13   7.9578491460498046e-13   8.0607052998189690e-13   8.0607041555131878e-13   8.1288889908784239e-13   8.1288876972596132e-13   8.1617445646156244e-13   8.1617431259850357e-13   8.1589556040887030e-13   8.1589540261823218e-13   8.1205489688357923e-13   8.1205472583312967e-13   8.0468945357927065e-13   8.0468927008385909e-13   7.9387016376898172e-13   7.9386996873010537e-13   7.7970122313764455e-13   7.7970101758911601e-13   7.6231908635018068e-13   7.6231887141492378e-13   7.4189115287954722e-13   7.4189092979819757e-13   7.1861415490348000e-13   7.1861392497689079e-13   6.9271226264348138e-13   6.9271202726004822e-13   6.6443492546677709e-13   6.6443468609332535e-13   6.3405446959761957e-13   6.3405422773208015e-13   6.0186347542984857e-13   6.0186323262994918e-13   5.6817195982496203e-13   5.6817171767379983e-13   5.3330439052259446e-13   5.3330415060330742e-13   4.9759656126131213e-13   4.9759632518867384e-13   4.6139235798083187e-13   4.6139212733503689e-13   4.2504044697113625e-13   4.2504022332451700e-13   3.8889091704467528e-13   3.8889070193648573e-13   3.5329190798454064e-13   3.5329170291180912e-13   3.1858625778575382e-13   3.1858606418953216e-13   2.8510820090930328e-13   2.8510802018482490e-13   2.5318014945972739e-13   2.5317998294654045e-13   2.2310958815132376e-13   2.2310943716021797e-13   1.9518611309837791e-13   1.9518597891916821e-13   1.6967864284326951e-13   1.6967852682184644e-13   1.4683282856606625e-13   1.4683273219474815e-13   1.2686868845049772e-13   1.2686861353271826e-13   1.0997848905892753e-13   1.0997843792452004e-13   9.6324894317955086e-14   9.6324870083384750e-14   8.6039400333253140e-14   8.6039406981667975e-14   7.9221071662882209e-14   7.9221113466803061e-14   7.5935591950739588e-14   7.5935671015196572e-14   7.6214638394361938e-14   7.6214747717560812e-14   8.0055459161801044e-14   8.0055694948673365e-14   8.7426360182104247e-14   8.7421349243889083e-14   9.8076663472288132e-14   9.8249092079084174e-14   1.1728790026369916e-13   1.1214591372221295e-13   1.0418478579987007e-13   1.3812754172015197e-13   2.0872472866938468e-13   1.6121475377858042e-13   2.3125627026323033e-13   2.3889757738881030e-13   2.5961661895257819e-13   2.5947637161247007e-13   2.8992748009405005e-13   2.8992748424274563e-13   3.2188732421807711e-13   3.2188734358798421e-13   3.5519369926182848e-13   3.5519367077114703e-13   3.8952557427327556e-13   3.8952563367414463e-13   4.2455237968030423e-13   4.2455247649178637e-13   4.5993681068925886e-13   4.5993691863995307e-13   4.9533809501281560e-13   4.9533819985218222e-13   5.3041529121173842e-13   5.3041538624121916e-13   5.6483057798829816e-13   5.6483066088421082e-13   5.9825250971836067e-13   5.9825258032824118e-13   6.3035920903319609e-13   6.3035926808537223e-13   6.608414