<?xml version="1.0"?>
<VTKFile type="UnstructuredGrid"  version="0.1"  >
<UnstructuredGrid>
<Piece  NumberOfPoints="81" NumberOfCells="128">
<Points>
<DataArray  type="Float64"  NumberOfComponents="3"  format="ascii">0 0 0  0.125 0 0  0.25 0 0  0.375 0 0  0.5 0 0  0.625 0 0  0.75 0 0  0.875 0 0  1 0 0  0 0.125 0  0.125 0.125 0  0.25 0.125 0  0.375 0.125 0  0.5 0.125 0  0.625 0.125 0  0.75 0.125 0  0.875 0.125 0  1 0.125 0  0 0.25 0  0.125 0.25 0  0.25 0.25 0  0.375 0.25 0  0.5 0.25 0  0.625 0.25 0  0.75 0.25 0  0.875 0.25 0  1 0.25 0  0 0.375 0  0.125 0.375 0  0.25 0.375 0  0.375 0.375 0  0.5 0.375 0  0.625 0.375 0  0.75 0.375 0  0.875 0.375 0  1 0.375 0  0 0.5 0  0.125 0.5 0  0.25 0.5 0  0.375 0.5 0  0.5 0.5 0  0.625 0.5 0  0.75 0.5 0  0.875 0.5 0  1 0.5 0  0 0.625 0  0.125 0.625 0  0.25 0.625 0  0.375 0.625 0  0.5 0.625 0  0.625 0.625 0  0.75 0.625 0  0.875 0.625 0  1 0.625 0  0 0.75 0  0.125 0.75 0  0.25 0.75 0  0.375 0.75 0  0.5 0.75 0  0.625 0.75 0  0.75 0.75 0  0.875 0.75 0  1 0.75 0  0 0.875 0  0.125 0.875 0  0.25 0.875 0  0.375 0.875 0  0.5 0.875 0  0.625 0.875 0  0.75 0.875 0  0.875 0.875 0  1 0.875 0  0 1 0  0.125 1 0  0.25 1 0  0.375 1 0  0.5 1 0  0.625 1 0  0.75 1 0  0.875 1 0  1 1 0  </DataArray>
</Points>
<Cells>
<DataArray  type="UInt32"  Name="connectivity"  format="ascii">0 1 10  0 9 10  1 2 11  1 10 11  2 3 12  2 11 12  3 4 13  3 12 13  4 5 14  4 13 14  5 6 15  5 14 15  6 7 16  6 15 16  7 8 17  7 16 17  9 10 19  9 18 19  10 11 20  10 19 20  11 12 21  11 20 21  12 13 22  12 21 22  13 14 23  13 22 23  14 15 24  14 23 24  15 16 25  15 24 25  16 17 26  16 25 26  18 19 28  18 27 28  19 20 29  19 28 29  20 21 30  20 29 30  21 22 31  21 30 31  22 23 32  22 31 32  23 24 33  23 32 33  24 25 34  24 33 34  25 26 35  25 34 35  27 28 37  27 36 37  28 29 38  28 37 38  29 30 39  29 38 39  30 31 40  30 39 40  31 32 41  31 40 41  32 33 42  32 41 42  33 34 43  33 42 43  34 35 44  34 43 44  36 37 46  36 45 46  37 38 47  37 46 47  38 39 48  38 47 48  39 40 49  39 48 49  40 41 50  40 49 50  41 42 51  41 50 51  42 43 52  42 51 52  43 44 53  43 52 53  45 46 55  45 54 55  46 47 56  46 55 56  47 48 57  47 56 57  48 49 58  48 57 58  49 50 59  49 58 59  50 51 60  50 59 60  51 52 61  51 60 61  52 53 62  52 61 62  54 55 64  54 63 64  55 56 65  55 64 65  56 57 66  56 65 66  57 58 67  57 66 67  58 59 68  58 67 68  59 60 69  59 68 69  60 61 70  60 69 70  61 62 71  61 70 71  63 64 73  63 72 73  64 65 74  64 73 74  65 66 75  65 74 75  66 67 76  66 75 76  67 68 77  67 76 77  68 69 78  68 77 78  69 70 79  69 78 79  70 71 80  70 79 80  </DataArray>
<DataArray  type="UInt32"  Name="offsets"  format="ascii">3 6 9 12 15 18 21 24 27 30 33 36 39 42 45 48 51 54 57 60 63 66 69 72 75 78 81 84 87 90 93 96 99 102 105 108 111 114 117 120 123 126 129 132 135 138 141 144 147 150 153 156 159 162 165 168 171 174 177 180 183 186 189 192 195 198 201 204 207 210 213 216 219 222 225 228 231 234 237 240 243 246 249 252 255 258 261 264 267 270 273 276 279 282 285 288 291 294 297 300 303 306 309 312 315 318 321 324 327 330 333 336 339 342 345 348 351 354 357 360 363 366 369 372 375 378 381 384 </DataArray>
<DataArray  type="UInt8"  Name="types"  format="ascii">5 5 5 5 5 5 5 5 5 5 5 5 5 5 5 5 5 5 5 5 5 5 5 5 5 5 5 5 5 5 5 5 5 5 5 5 5 5 5 5 5 5 5 5 5 5 5 5 5 5 5 5 5 5 5 5 5 5 5 5 5 5 5 5 5 5 5 5 5 5 5 5 5 5 5 5 5 5 5 5 5 5 5 5 5 5 5 5 5 5 5 5 5 5 5 5 5 5 5 5 5 5 5 5 5 5 5 5 5 5 5 5 5 5 5 5 5 5 5 5 5 5 5 5 5 5 5 5 </DataArray>
</Cells>
<CellData  Scalars="f_88100"> 
<DataArray  type="Float64"  Name="f_88100"  format="ascii">4.7658576898469027e-09   3.9549975469299288e-09   3.5143207662069085e-09   2.8996168241030845e-09   1.7063307276157106e-09   1.4045672282784958e-09   4.0081671452779983e-10   3.5174907834408728e-10   3.6365974421424270e-10   3.6614779601598637e-10   1.6177181997317870e-09   1.4481367552489994e-09   3.4281352750673845e-09   2.9738784860195235e-09   4.7311145993172687e-09   4.0602305977078059e-09   4.1865876237578686e-09   2.2724944329776351e-09   3.6450220577082200e-09   1.8971656497051716e-09   2.6072090253739963e-09   1.5401176094096077e-09   1.6901171377449589e-09   1.4167576353399955e-09   1.4419606615481468e-09   1.6110189439490077e-09   2.0183088230576160e-09   2.0225712066509465e-09   3.0899216893369956e-09   2.4254612668594604e-09   4.0323257749894106e-09   2.5985277206454415e-09   2.7716431081645153e-09   6.4156086976117388e-10   3.3590733417203860e-09   9.8319133978175746e-10   3.6357331762571656e-09   1.9213121355398089e-09   3.4530837848837568e-09   2.9085032023542791e-09   2.9327910889794621e-09   3.3746946983556873e-09   2.3930288202193361e-09   3.0571365671086831e-09   2.1620220983763919e-09   2.1533321049457008e-09   2.3828423593621591e-09   1.2031858779650206e-09   1.3248773502161887e-09   6.5816062125717509e-13   2.8123693098930099e-09   6.8332890036888328e-10   4.1960027315478100e-09   2.3284510424071852e-09   4.6749952203454731e-09   3.9685262551862531e-09   3.9784451613323642e-09   4.6425916533334952e-09   2.5230979278411965e-09   3.9569294919025695e-09   1.1701243111116762e-09   2.3143703879256585e-09   7.1998512921499695e-10   6.7735879147431700e-10   6.7738504228921615e-10   7.1959380843374500e-10   2.3144992695438306e-09   1.1698592513694100e-09   3.9571519793993753e-09   2.5230898516651545e-09   4.6428457402773549e-09   3.9786478394546349e-09   3.9687337373771198e-09   4.6752281233962391e-09   2.3285648386542939e-09   4.1960694431365663e-09   6.8336227566173178e-10   2.8121856826473024e-09   6.7128647112715152e-13   1.3245319544594746e-09   1.2028811971917899e-09   2.3823227814076448e-09   2.1533260724847026e-09   2.1616857352098350e-09   3.0575102637429245e-09   2.3931289315141375e-09   3.3752787038143713e-09   2.9332785232453088e-09   2.9089920383399882e-09   3.4536596343626474e-09   1.9214603959028328e-09   3.6360460135073937e-09   9.8297194535837502e-10   3.3589456069382939e-09   6.4118381570829986e-10   2.7711892836825799e-09   2.5980880125855500e-09   4.0319951583531009e-09   2.4253204041051383e-09   3.0897100294578294e-09   2.0228651680652550e-09   2.0184504201984932e-09   1.6115765535213379e-09   1.4424342219666076e-09   1.4172299565324360e-09   1.6906841993238290e-09   1.5402093180168840e-09   2.6075743941616001e-09   1.8968276894242676e-09   3.6450241154703383e-09   2.2719589507454839e-09   4.1862966189722142e-09   4.0599274918236138e-09   4.7311145993118689e-09   2.9736932393243984e-09   3.4281627858240818e-09   1.4481900246386335e-09   1.6178244828089224e-09   3.6636447596084963e-10   3.6385355688368708e-10   3.5193792646208091e-10   4.0105208811721045e-10   1.4045559603292714e-09   1.7065350608864619e-09   2.8993670082273952e-09   3.5144407873319514e-09   3.9546255907083648e-09   4.7658925614642716e-09   </DataArray> 
</CellData> 
</Piece>
</UnstructuredGrid>
</VTKFile>