<?xml version="1.0"?>
<VTKFile type="UnstructuredGrid"  version="0.1"  >
<UnstructuredGrid>
<Piece  NumberOfPoints="81" NumberOfCells="128">
<Points>
<DataArray  type="Float64"  NumberOfComponents="3"  format="ascii">0 0 0  0.125 0 0  0.25 0 0  0.375 0 0  0.5 0 0  0.625 0 0  0.75 0 0  0.875 0 0  1 0 0  0 0.125 0  0.125 0.125 0  0.25 0.125 0  0.375 0.125 0  0.5 0.125 0  0.625 0.125 0  0.75 0.125 0  0.875 0.125 0  1 0.125 0  0 0.25 0  0.125 0.25 0  0.25 0.25 0  0.375 0.25 0  0.5 0.25 0  0.625 0.25 0  0.75 0.25 0  0.875 0.25 0  1 0.25 0  0 0.375 0  0.125 0.375 0  0.25 0.375 0  0.375 0.375 0  0.5 0.375 0  0.625 0.375 0  0.75 0.375 0  0.875 0.375 0  1 0.375 0  0 0.5 0  0.125 0.5 0  0.25 0.5 0  0.375 0.5 0  0.5 0.5 0  0.625 0.5 0  0.75 0.5 0  0.875 0.5 0  1 0.5 0  0 0.625 0  0.125 0.625 0  0.25 0.625 0  0.375 0.625 0  0.5 0.625 0  0.625 0.625 0  0.75 0.625 0  0.875 0.625 0  1 0.625 0  0 0.75 0  0.125 0.75 0  0.25 0.75 0  0.375 0.75 0  0.5 0.75 0  0.625 0.75 0  0.75 0.75 0  0.875 0.75 0  1 0.75 0  0 0.875 0  0.125 0.875 0  0.25 0.875 0  0.375 0.875 0  0.5 0.875 0  0.625 0.875 0  0.75 0.875 0  0.875 0.875 0  1 0.875 0  0 1 0  0.125 1 0  0.25 1 0  0.375 1 0  0.5 1 0  0.625 1 0  0.75 1 0  0.875 1 0  1 1 0  </DataArray>
</Points>
<Cells>
<DataArray  type="UInt32"  Name="connectivity"  format="ascii">0 1 10  0 9 10  1 2 11  1 10 11  2 3 12  2 11 12  3 4 13  3 12 13  4 5 14  4 13 14  5 6 15  5 14 15  6 7 16  6 15 16  7 8 17  7 16 17  9 10 19  9 18 19  10 11 20  10 19 20  11 12 21  11 20 21  12 13 22  12 21 22  13 14 23  13 22 23  14 15 24  14 23 24  15 16 25  15 24 25  16 17 26  16 25 26  18 19 28  18 27 28  19 20 29  19 28 29  20 21 30  20 29 30  21 22 31  21 30 31  22 23 32  22 31 32  23 24 33  23 32 33  24 25 34  24 33 34  25 26 35  25 34 35  27 28 37  27 36 37  28 29 38  28 37 38  29 30 39  29 38 39  30 31 40  30 39 40  31 32 41  31 40 41  32 33 42  32 41 42  33 34 43  33 42 43  34 35 44  34 43 44  36 37 46  36 45 46  37 38 47  37 46 47  38 39 48  38 47 48  39 40 49  39 48 49  40 41 50  40 49 50  41 42 51  41 50 51  42 43 52  42 51 52  43 44 53  43 52 53  45 46 55  45 54 55  46 47 56  46 55 56  47 48 57  47 56 57  48 49 58  48 57 58  49 50 59  49 58 59  50 51 60  50 59 60  51 52 61  51 60 61  52 53 62  52 61 62  54 55 64  54 63 64  55 56 65  55 64 65  56 57 66  56 65 66  57 58 67  57 66 67  58 59 68  58 67 68  59 60 69  59 68 69  60 61 70  60 69 70  61 62 71  61 70 71  63 64 73  63 72 73  64 65 74  64 73 74  65 66 75  65 74 75  66 67 76  66 75 76  67 68 77  67 76 77  68 69 78  68 77 78  69 70 79  69 78 79  70 71 80  70 79 80  </DataArray>
<DataArray  type="UInt32"  Name="offsets"  format="ascii">3 6 9 12 15 18 21 24 27 30 33 36 39 42 45 48 51 54 57 60 63 66 69 72 75 78 81 84 87 90 93 96 99 102 105 108 111 114 117 120 123 126 129 132 135 138 141 144 147 150 153 156 159 162 165 168 171 174 177 180 183 186 189 192 195 198 201 204 207 210 213 216 219 222 225 228 231 234 237 240 243 246 249 252 255 258 261 264 267 270 273 276 279 282 285 288 291 294 297 300 303 306 309 312 315 318 321 324 327 330 333 336 339 342 345 348 351 354 357 360 363 366 369 372 375 378 381 384 </DataArray>
<DataArray  type="UInt8"  Name="types"  format="ascii">5 5 5 5 5 5 5 5 5 5 5 5 5 5 5 5 5 5 5 5 5 5 5 5 5 5 5 5 5 5 5 5 5 5 5 5 5 5 5 5 5 5 5 5 5 5 5 5 5 5 5 5 5 5 5 5 5 5 5 5 5 5 5 5 5 5 5 5 5 5 5 5 5 5 5 5 5 5 5 5 5 5 5 5 5 5 5 5 5 5 5 5 5 5 5 5 5 5 5 5 5 5 5 5 5 5 5 5 5 5 5 5 5 5 5 5 5 5 5 5 5 5 5 5 5 5 5 5 </DataArray>
</Cells>
<CellData  Scalars="f_44160"> 
<DataArray  type="Float64"  Name="f_44160"  format="ascii">3.8053618085331666e-09   4.4609220525690387e-09   9.2978327204949477e-09   1.6985004531342306e-08   1.3498341583461562e-08   2.9490604807029022e-08   1.4238247733924066e-08   3.5802153630868218e-08   1.0785794626267658e-08   3.2205940521771235e-08   5.9459098089640018e-09   2.0467940472304333e-08   1.0425282135374145e-09   8.3300653842805245e-09   9.0758324285372673e-10   2.0270655720379799e-09   2.7604837421701446e-08   2.1217219289535390e-08   3.8863781872201747e-08   3.7196041581245146e-08   4.0127083818225075e-08   3.3216453308035595e-08   3.3878194807594554e-08   2.4789721012652197e-08   2.2930041303577499e-08   1.4733986553469557e-08   1.4325340934517440e-08   8.8766079038366372e-09   1.2984090258391940e-08   1.0886819243454799e-08   1.6322670528174492e-08   2.3078334667721314e-08   5.4139874006064385e-08   4.1061662926570233e-08   4.9656127653720536e-08   5.3291025608814111e-08   3.3003788160892738e-08   3.3581458429709266e-08   1.4975552467005545e-08   1.6447589952882228e-08   5.2251249129508539e-09   6.3770425178711156e-09   9.6466135740110600e-09   9.9964715023774779e-09   2.7893449250070753e-08   2.4962262441231039e-08   3.5073534521849717e-08   4.6611769462075991e-08   7.1401649508640086e-08   5.3649252661445137e-08   5.3814041766124556e-08   5.8245301475503607e-08   2.8228080002536624e-08   2.7427240936918060e-08   7.1113388947284438e-09   7.0285352775579766e-09   2.8215625195168144e-09   2.7133979910716304e-09   1.7342226529411517e-08   1.8039467252548535e-08   4.7110416066484810e-08   4.3554759054633838e-08   5.1217855749001072e-08   6.9200797431365243e-08   6.9262366501309282e-08   5.1213251275539653e-08   4.3548435858931659e-08   4.7189050439354748e-08   1.8036554304116302e-08   1.7329390955405183e-08   2.7132083441621429e-09   2.8213588387288501e-09   7.0275921471182946e-09   7.1103842262403103e-09   2.7442576329478075e-08   2.8226084204724913e-08   5.8156139292525610e-08   5.3809474586634533e-08   5.3660049108838252e-08   7.1335116309079219e-08   4.6675087335722002e-08   3.5067358354827284e-08   2.4956568053706320e-08   2.7933975386332305e-08   9.9949956617635727e-09   9.6443488594094373e-09   6.3781776864751922e-09   5.2354703048136432e-09   1.6445933539975668e-08   1.4990752653365103e-08   3.3592330259720293e-08   3.3014517363734665e-08   5.3202538215782472e-08   4.9630244328821069e-08   4.1080138228812338e-08   5.4097846581908137e-08   2.3042800322562441e-08   1.6290350696214812e-08   1.0890804226349250e-08   1.2982711842848839e-08   8.8755226439867927e-09   1.4268919875587809e-08   1.4744000890429737e-08   2.2846175290068770e-08   2.4793273670695458e-08   3.3789319173465609e-08   3.3199120980234242e-08   4.0042110258543146e-08   3.7112431153836863e-08   3.8778399097344715e-08   2.1246692000027091e-08   2.7606854057061781e-08   2.0522811541741492e-09   9.3896345810949085e-10   8.3108810258013458e-09   1.0199391840917781e-09   2.0405284864285729e-08   5.9621371168547171e-09   3.2126797117878887e-08   1.0782396669653557e-08   3.5719432528743419e-08   1.4241255559534806e-08   2.9428707002098095e-08   1.3502516298817912e-08   1.6965576043030569e-08   9.3078323565472338e-09   4.4759793243773318e-09   3.8197146396801969e-09   </DataArray> 
</CellData> 
</Piece>
</UnstructuredGrid>
</VTKFile>