<?xml version="1.0"?>
<VTKFile type="UnstructuredGrid"  version="0.1"  >
<UnstructuredGrid>
<Piece  NumberOfPoints="1089" NumberOfCells="2048">
<Points>
<DataArray  type="Float64"  NumberOfComponents="3"  format="ascii">0 0 0  0.03125 0 0  0.0625 0 0  0.09375 0 0  0.125 0 0  0.15625 0 0  0.1875 0 0  0.21875 0 0  0.25 0 0  0.28125 0 0  0.3125 0 0  0.34375 0 0  0.375 0 0  0.40625 0 0  0.4375 0 0  0.46875 0 0  0.5 0 0  0.53125 0 0  0.5625 0 0  0.59375 0 0  0.625 0 0  0.65625 0 0  0.6875 0 0  0.71875 0 0  0.75 0 0  0.78125 0 0  0.8125 0 0  0.84375 0 0  0.875 0 0  0.90625 0 0  0.9375 0 0  0.96875 0 0  1 0 0  0 0.03125 0  0.03125 0.03125 0  0.0625 0.03125 0  0.09375 0.03125 0  0.125 0.03125 0  0.15625 0.03125 0  0.1875 0.03125 0  0.21875 0.03125 0  0.25 0.03125 0  0.28125 0.03125 0  0.3125 0.03125 0  0.34375 0.03125 0  0.375 0.03125 0  0.40625 0.03125 0  0.4375 0.03125 0  0.46875 0.03125 0  0.5 0.03125 0  0.53125 0.03125 0  0.5625 0.03125 0  0.59375 0.03125 0  0.625 0.03125 0  0.65625 0.03125 0  0.6875 0.03125 0  0.71875 0.03125 0  0.75 0.03125 0  0.78125 0.03125 0  0.8125 0.03125 0  0.84375 0.03125 0  0.875 0.03125 0  0.90625 0.03125 0  0.9375 0.03125 0  0.96875 0.03125 0  1 0.03125 0  0 0.0625 0  0.03125 0.0625 0  0.0625 0.0625 0  0.09375 0.0625 0  0.125 0.0625 0  0.15625 0.0625 0  0.1875 0.0625 0  0.21875 0.0625 0  0.25 0.0625 0  0.28125 0.0625 0  0.3125 0.0625 0  0.34375 0.0625 0  0.375 0.0625 0  0.40625 0.0625 0  0.4375 0.0625 0  0.46875 0.0625 0  0.5 0.0625 0  0.53125 0.0625 0  0.5625 0.0625 0  0.59375 0.0625 0  0.625 0.0625 0  0.65625 0.0625 0  0.6875 0.0625 0  0.71875 0.0625 0  0.75 0.0625 0  0.78125 0.0625 0  0.8125 0.0625 0  0.84375 0.0625 0  0.875 0.0625 0  0.90625 0.0625 0  0.9375 0.0625 0  0.96875 0.0625 0  1 0.0625 0  0 0.09375 0  0.03125 0.09375 0  0.0625 0.09375 0  0.09375 0.09375 0  0.125 0.09375 0  0.15625 0.09375 0  0.1875 0.09375 0  0.21875 0.09375 0  0.25 0.09375 0  0.28125 0.09375 0  0.3125 0.09375 0  0.34375 0.09375 0  0.375 0.09375 0  0.40625 0.09375 0  0.4375 0.09375 0  0.46875 0.09375 0  0.5 0.09375 0  0.53125 0.09375 0  0.5625 0.09375 0  0.59375 0.09375 0  0.625 0.09375 0  0.65625 0.09375 0  0.6875 0.09375 0  0.71875 0.09375 0  0.75 0.09375 0  0.78125 0.09375 0  0.8125 0.09375 0  0.84375 0.09375 0  0.875 0.09375 0  0.90625 0.09375 0  0.9375 0.09375 0  0.96875 0.09375 0  1 0.09375 0  0 0.125 0  0.03125 0.125 0  0.0625 0.125 0  0.09375 0.125 0  0.125 0.125 0  0.15625 0.125 0  0.1875 0.125 0  0.21875 0.125 0  0.25 0.125 0  0.28125 0.125 0  0.3125 0.125 0  0.34375 0.125 0  0.375 0.125 0  0.40625 0.125 0  0.4375 0.125 0  0.46875 0.125 0  0.5 0.125 0  0.53125 0.125 0  0.5625 0.125 0  0.59375 0.125 0  0.625 0.125 0  0.65625 0.125 0  0.6875 0.125 0  0.71875 0.125 0  0.75 0.125 0  0.78125 0.125 0  0.8125 0.125 0  0.84375 0.125 0  0.875 0.125 0  0.90625 0.125 0  0.9375 0.125 0  0.96875 0.125 0  1 0.125 0  0 0.15625 0  0.03125 0.15625 0  0.0625 0.15625 0  0.09375 0.15625 0  0.125 0.15625 0  0.15625 0.15625 0  0.1875 0.15625 0  0.21875 0.15625 0  0.25 0.15625 0  0.28125 0.15625 0  0.3125 0.15625 0  0.34375 0.15625 0  0.375 0.15625 0  0.40625 0.15625 0  0.4375 0.15625 0  0.46875 0.15625 0  0.5 0.15625 0  0.53125 0.15625 0  0.5625 0.15625 0  0.59375 0.15625 0  0.625 0.15625 0  0.65625 0.15625 0  0.6875 0.15625 0  0.71875 0.15625 0  0.75 0.15625 0  0.78125 0.15625 0  0.8125 0.15625 0  0.84375 0.15625 0  0.875 0.15625 0  0.90625 0.15625 0  0.9375 0.15625 0  0.96875 0.15625 0  1 0.15625 0  0 0.1875 0  0.03125 0.1875 0  0.0625 0.1875 0  0.09375 0.1875 0  0.125 0.1875 0  0.15625 0.1875 0  0.1875 0.1875 0  0.21875 0.1875 0  0.25 0.1875 0  0.28125 0.1875 0  0.3125 0.1875 0  0.34375 0.1875 0  0.375 0.1875 0  0.40625 0.1875 0  0.4375 0.1875 0  0.46875 0.1875 0  0.5 0.1875 0  0.53125 0.1875 0  0.5625 0.1875 0  0.59375 0.1875 0  0.625 0.1875 0  0.65625 0.1875 0  0.6875 0.1875 0  0.71875 0.1875 0  0.75 0.1875 0  0.78125 0.1875 0  0.8125 0.1875 0  0.84375 0.1875 0  0.875 0.1875 0  0.90625 0.1875 0  0.9375 0.1875 0  0.96875 0.1875 0  1 0.1875 0  0 0.21875 0  0.03125 0.21875 0  0.0625 0.21875 0  0.09375 0.21875 0  0.125 0.21875 0  0.15625 0.21875 0  0.1875 0.21875 0  0.21875 0.21875 0  0.25 0.21875 0  0.28125 0.21875 0  0.3125 0.21875 0  0.34375 0.21875 0  0.375 0.21875 0  0.40625 0.21875 0  0.4375 0.21875 0  0.46875 0.21875 0  0.5 0.21875 0  0.53125 0.21875 0  0.5625 0.21875 0  0.59375 0.21875 0  0.625 0.21875 0  0.65625 0.21875 0  0.6875 0.21875 0  0.71875 0.21875 0  0.75 0.21875 0  0.78125 0.21875 0  0.8125 0.21875 0  0.84375 0.21875 0  0.875 0.21875 0  0.90625 0.21875 0  0.9375 0.21875 0  0.96875 0.21875 0  1 0.21875 0  0 0.25 0  0.03125 0.25 0  0.0625 0.25 0  0.09375 0.25 0  0.125 0.25 0  0.15625 0.25 0  0.1875 0.25 0  0.21875 0.25 0  0.25 0.25 0  0.28125 0.25 0  0.3125 0.25 0  0.34375 0.25 0  0.375 0.25 0  0.40625 0.25 0  0.4375 0.25 0  0.46875 0.25 0  0.5 0.25 0  0.53125 0.25 0  0.5625 0.25 0  0.59375 0.25 0  0.625 0.25 0  0.65625 0.25 0  0.6875 0.25 0  0.71875 0.25 0  0.75 0.25 0  0.78125 0.25 0  0.8125 0.25 0  0.84375 0.25 0  0.875 0.25 0  0.90625 0.25 0  0.9375 0.25 0  0.96875 0.25 0  1 0.25 0  0 0.28125 0  0.03125 0.28125 0  0.0625 0.28125 0  0.09375 0.28125 0  0.125 0.28125 0  0.15625 0.28125 0  0.1875 0.28125 0  0.21875 0.28125 0  0.25 0.28125 0  0.28125 0.28125 0  0.3125 0.28125 0  0.34375 0.28125 0  0.375 0.28125 0  0.40625 0.28125 0  0.4375 0.28125 0  0.46875 0.28125 0  0.5 0.28125 0  0.53125 0.28125 0  0.5625 0.28125 0  0.59375 0.28125 0  0.625 0.28125 0  0.65625 0.28125 0  0.6875 0.28125 0  0.71875 0.28125 0  0.75 0.28125 0  0.78125 0.28125 0  0.8125 0.28125 0  0.84375 0.28125 0  0.875 0.28125 0  0.90625 0.28125 0  0.9375 0.28125 0  0.96875 0.28125 0  1 0.28125 0  0 0.3125 0  0.03125 0.3125 0  0.0625 0.3125 0  0.09375 0.3125 0  0.125 0.3125 0  0.15625 0.3125 0  0.1875 0.3125 0  0.21875 0.3125 0  0.25 0.3125 0  0.28125 0.3125 0  0.3125 0.3125 0  0.34375 0.3125 0  0.375 0.3125 0  0.40625 0.3125 0  0.4375 0.3125 0  0.46875 0.3125 0  0.5 0.3125 0  0.53125 0.3125 0  0.5625 0.3125 0  0.59375 0.3125 0  0.625 0.3125 0  0.65625 0.3125 0  0.6875 0.3125 0  0.71875 0.3125 0  0.75 0.3125 0  0.78125 0.3125 0  0.8125 0.3125 0  0.84375 0.3125 0  0.875 0.3125 0  0.90625 0.3125 0  0.9375 0.3125 0  0.96875 0.3125 0  1 0.3125 0  0 0.34375 0  0.03125 0.34375 0  0.0625 0.34375 0  0.09375 0.34375 0  0.125 0.34375 0  0.15625 0.34375 0  0.1875 0.34375 0  0.21875 0.34375 0  0.25 0.34375 0  0.28125 0.34375 0  0.3125 0.34375 0  0.34375 0.34375 0  0.375 0.34375 0  0.40625 0.34375 0  0.4375 0.34375 0  0.46875 0.34375 0  0.5 0.34375 0  0.53125 0.34375 0  0.5625 0.34375 0  0.59375 0.34375 0  0.625 0.34375 0  0.65625 0.34375 0  0.6875 0.34375 0  0.71875 0.34375 0  0.75 0.34375 0  0.78125 0.34375 0  0.8125 0.34375 0  0.84375 0.34375 0  0.875 0.34375 0  0.90625 0.34375 0  0.9375 0.34375 0  0.96875 0.34375 0  1 0.34375 0  0 0.375 0  0.03125 0.375 0  0.0625 0.375 0  0.09375 0.375 0  0.125 0.375 0  0.15625 0.375 0  0.1875 0.375 0  0.21875 0.375 0  0.25 0.375 0  0.28125 0.375 0  0.3125 0.375 0  0.34375 0.375 0  0.375 0.375 0  0.40625 0.375 0  0.4375 0.375 0  0.46875 0.375 0  0.5 0.375 0  0.53125 0.375 0  0.5625 0.375 0  0.59375 0.375 0  0.625 0.375 0  0.65625 0.375 0  0.6875 0.375 0  0.71875 0.375 0  0.75 0.375 0  0.78125 0.375 0  0.8125 0.375 0  0.84375 0.375 0  0.875 0.375 0  0.90625 0.375 0  0.9375 0.375 0  0.96875 0.375 0  1 0.375 0  0 0.40625 0  0.03125 0.40625 0  0.0625 0.40625 0  0.09375 0.40625 0  0.125 0.40625 0  0.15625 0.40625 0  0.1875 0.40625 0  0.21875 0.40625 0  0.25 0.40625 0  0.28125 0.40625 0  0.3125 0.40625 0  0.34375 0.40625 0  0.375 0.40625 0  0.40625 0.40625 0  0.4375 0.40625 0  0.46875 0.40625 0  0.5 0.40625 0  0.53125 0.40625 0  0.5625 0.40625 0  0.59375 0.40625 0  0.625 0.40625 0  0.65625 0.40625 0  0.6875 0.40625 0  0.71875 0.40625 0  0.75 0.40625 0  0.78125 0.40625 0  0.8125 0.40625 0  0.84375 0.40625 0  0.875 0.40625 0  0.90625 0.40625 0  0.9375 0.40625 0  0.96875 0.40625 0  1 0.40625 0  0 0.4375 0  0.03125 0.4375 0  0.0625 0.4375 0  0.09375 0.4375 0  0.125 0.4375 0  0.15625 0.4375 0  0.1875 0.4375 0  0.21875 0.4375 0  0.25 0.4375 0  0.28125 0.4375 0  0.3125 0.4375 0  0.34375 0.4375 0  0.375 0.4375 0  0.40625 0.4375 0  0.4375 0.4375 0  0.46875 0.4375 0  0.5 0.4375 0  0.53125 0.4375 0  0.5625 0.4375 0  0.59375 0.4375 0  0.625 0.4375 0  0.65625 0.4375 0  0.6875 0.4375 0  0.71875 0.4375 0  0.75 0.4375 0  0.78125 0.4375 0  0.8125 0.4375 0  0.84375 0.4375 0  0.875 0.4375 0  0.90625 0.4375 0  0.9375 0.4375 0  0.96875 0.4375 0  1 0.4375 0  0 0.46875 0  0.03125 0.46875 0  0.0625 0.46875 0  0.09375 0.46875 0  0.125 0.46875 0  0.15625 0.46875 0  0.1875 0.46875 0  0.21875 0.46875 0  0.25 0.46875 0  0.28125 0.46875 0  0.3125 0.46875 0  0.34375 0.46875 0  0.375 0.46875 0  0.40625 0.46875 0  0.4375 0.46875 0  0.46875 0.46875 0  0.5 0.46875 0  0.53125 0.46875 0  0.5625 0.46875 0  0.59375 0.46875 0  0.625 0.46875 0  0.65625 0.46875 0  0.6875 0.46875 0  0.71875 0.46875 0  0.75 0.46875 0  0.78125 0.46875 0  0.8125 0.46875 0  0.84375 0.46875 0  0.875 0.46875 0  0.90625 0.46875 0  0.9375 0.46875 0  0.96875 0.46875 0  1 0.46875 0  0 0.5 0  0.03125 0.5 0  0.0625 0.5 0  0.09375 0.5 0  0.125 0.5 0  0.15625 0.5 0  0.1875 0.5 0  0.21875 0.5 0  0.25 0.5 0  0.28125 0.5 0  0.3125 0.5 0  0.34375 0.5 0  0.375 0.5 0  0.40625 0.5 0  0.4375 0.5 0  0.46875 0.5 0  0.5 0.5 0  0.53125 0.5 0  0.5625 0.5 0  0.59375 0.5 0  0.625 0.5 0  0.65625 0.5 0  0.6875 0.5 0  0.71875 0.5 0  0.75 0.5 0  0.78125 0.5 0  0.8125 0.5 0  0.84375 0.5 0  0.875 0.5 0  0.90625 0.5 0  0.9375 0.5 0  0.96875 0.5 0  1 0.5 0  0 0.53125 0  0.03125 0.53125 0  0.0625 0.53125 0  0.09375 0.53125 0  0.125 0.53125 0  0.15625 0.53125 0  0.1875 0.53125 0  0.21875 0.53125 0  0.25 0.53125 0  0.28125 0.53125 0  0.3125 0.53125 0  0.34375 0.53125 0  0.375 0.53125 0  0.40625 0.53125 0  0.4375 0.53125 0  0.46875 0.53125 0  0.5 0.53125 0  0.53125 0.53125 0  0.5625 0.53125 0  0.59375 0.53125 0  0.625 0.53125 0  0.65625 0.53125 0  0.6875 0.53125 0  0.71875 0.53125 0  0.75 0.53125 0  0.78125 0.531
[...]
<CellData  Scalars="f_132258"> 
<DataArray  type="Float64"  Name="f_132258"  format="ascii">1.1604129881242615e-13   1.3373323449279312e-13   3.4109002155671578e-13   5.7627596285751604e-13   6.7191703275530123e-13   1.2820445319578483e-12   1.1017719204247592e-12   2.2547365535462353e-12   1.6138249506015527e-12   3.4541365532041242e-12   2.1884254675395353e-12   4.8343722904563922e-12   2.8034964191661854e-12   6.3424033359510518e-12   3.4354029917621271e-12   7.9202774115833805e-12   4.0598622349707976e-12   9.5073562533351650e-12   4.6528769575744966e-12   1.1042648247783224e-11   5.1916582349507811e-12   1.2467153285032199e-11   5.6555013124995438e-12   1.3726130255677927e-11   6.0265813383514721e-12   1.4771200544110895e-11   6.2906383851562950e-12   1.5562206865160561e-11   6.4375254533406987e-12   1.6068756107128570e-11   6.4615984054311521e-12   1.6271386941604815e-11   6.3619328500576011e-12   1.6162317360987447e-11   6.1423596439743143e-12   1.5745743435127532e-11   5.8113176416327056e-12   1.5037677822113001e-11   5.3815293812452120e-12   1.4065334243743926e-11   4.8695120192314519e-12   1.2866081628012100e-11   4.2949430234328684e-12   1.1486007948052330e-11   3.6799016329813618e-12   9.9781498046164067e-12   3.0480306864416542e-12   8.4004518697365477e-12   2.4235821643094492e-12   6.8135526864268387e-12   1.8306805658201014e-12   5.2784015038827711e-12   1.2916004933480388e-12   3.8541439323637842e-12   8.2897458652615353e-13   2.5949297811195617e-12   4.5405416369582826e-13   1.5513200559074730e-12   2.0058340959680241e-13   7.5634684051399270e-13   3.5536700424578880e-14   2.5929143433770015e-13   2.7077325614360684e-14   5.9611229810404214e-14   8.9200388669946452e-13   7.0199062160838690e-13   1.6212510264573274e-12   1.5750919342597379e-12   2.5392485126414492e-12   2.2963720889625767e-12   3.6915753994056534e-12   3.2262158967553724e-12   5.0232081441263453e-12   4.2755344505319719e-12   6.4837865767760931e-12   5.4084081443765525e-12   8.0170923988088521e-12   6.5809109435270393e-12   9.5641922237810924e-12   7.7479777246390493e-12   1.1065625040076075e-11   8.8647498217372734e-12   1.2463688290639467e-11   9.8883067505081531e-12   1.3704654350166543e-11   1.0779311966032448e-11   1.4740834692101048e-11   1.1503523362355840e-11   1.5532412050910556e-11   1.2033108779762568e-11   1.6048970119832704e-11   1.2347715451329519e-11   1.6270662000319537e-11   1.2435252129703265e-11   1.6188972512796984e-11   1.2292353769005124e-11   1.5807045085206662e-11   1.1924510877444674e-11   1.5139560670077330e-11   1.1345858555515159e-11   1.4212173346957028e-11   1.0578633323029965e-11   1.3060524344955854e-11   9.6523185975608748e-12   1.1728872223912124e-11   8.6025116978897011e-12   1.0268392652019007e-11   7.4695557314660425e-12   8.7352095021264172e-12   6.2969897918358317e-12   7.1882494503917886e-12   5.1298730259842694e-12   5.6869298397621691e-12   4.0130650917859895e-12   4.2890774234089628e-12   2.9894493275833731e-12   3.0479054449930575e-12   2.0985023386799882e-12   2.0129329044416764e-12   1.3739367021055883e-12   1.2182488023012539e-12   8.4529889832180696e-13   7.0818959568699648e-13   5.2903230458345729e-13   4.9584699592934892e-13   4.3501491227243939e-13   4.9373989084405828e-13   6.9357721061125663e-13   2.1862564171648160e-12   1.6947608183213252e-12   2.9829674730970705e-12   3.1056737861222352e-12   3.8794654386863184e-12   3.8980656298028656e-12   4.9057100230593399e-12   4.9831246576516963e-12   6.0001858828035138e-12   6.1253528884543923e-12   7.1243836480599320e-12   7.3064276846928752e-12   8.2346767559661956e-12   8.4783219582951918e-12   9.2884248481298655e-12   9.5962255783332754e-12   1.0245126401843787e-11   1.0617158621855080e-11   1.1068014269175760e-11   1.1501886072154146e-11   1.1725464268735475e-11   1.2216407380857048e-11   1.2192210124737540e-11   1.2733263541682894e-11   1.2450314239008107e-11   1.3032592021098663e-11   1.2489856976331117e-11   1.3102889912052760e-11   1.2309317881152936e-11   1.2941455902223141e-11   1.1915634140235887e-11   1.2554494037159450e-11   1.1323934026280585e-11   1.1956875274963922e-11   1.0556955560371970e-11   1.1171565986317112e-11   9.6441727218455137e-12   1.0228745360682315e-11   8.6206628178978246e-12   9.1646456260314260e-12   7.5257583669965787e-12   8.0201596873302186e-12   6.4015361072423572e-12   6.8392695147180973e-12   5.2911974499292018e-12   5.6673565040429816e-12   4.2374195140854492e-12   4.5494549261372887e-12   3.2806660707360428e-12   3.5285325889722187e-12   2.4578343149146908e-12   2.6437921632982766e-12   1.8000523672692493e-12   1.9293513981735853e-12   1.3342527678479449e-12   1.4122781203198717e-12   1.0739524222031851e-12   1.1133709174750720e-12   1.0339456845937768e-12   1.0446752897726772e-12   1.2733464022542998e-12   1.1821503329376596e-12   1.3227616938797711e-12   1.7700229765306657e-12   4.0398153122149072e-12   3.1040617846306117e-12   4.9421835964040131e-12   5.1651403593713409e-12   5.9849042990927676e-12   5.9432456823994760e-12   7.0928860689184044e-12   7.0868006725970844e-12   8.2161724858780648e-12   8.1940563558845146e-12   9.3157687950780040e-12   9.2834375162784698e-12   1.0348514151272527e-11   1.0304269328825272e-11   1.1274842465802244e-11   1.1218354203078560e-11   1.2059137629297604e-11   1.1990456712869186e-11   1.2671258827890249e-11   1.2590911356926447e-11   1.3087681451511698e-11   1.2996640663203387e-11   1.3292402146551173e-11   1.3192051681238315e-11   1.3277553448064449e-11   1.3169634242598335e-11   1.3043705984943879e-11   1.2930249439160557e-11   1.2599846470532724e-11   1.2483096432860663e-11   1.1963032302753457e-11   1.1845358882926274e-11   1.1157736030285735e-11   1.1041544558256345e-11   1.0214904871384440e-11   1.0102543502009768e-11   9.1707714157539021e-12   9.0644409386121127e-12   8.0654612466831606e-12   7.9671305313315955e-12   6.9414508239177801e-12   6.8527813164807859e-12   5.8419356721594403e-12   5.7642170593836800e-12   4.8091679888797872e-12   4.7432711044454335e-12   3.8828435597597333e-12   3.8291763804113865e-12   3.0985314901239891e-12   3.0570679569091941e-12   2.4864851918205133e-12   2.4565922360003476e-12   2.0698384388924143e-12   2.0509144965051473e-12   1.8656568901922307e-12   1.8554113212290314e-12   1.8809030283169372e-12   1.8775150833491647e-12   2.0999940640550625e-12   2.1227827701193649e-12   2.6911319761793628e-12   2.5214446014083679e-12   2.6046098941843897e-12   3.5143375578203436e-12   6.3686700571272121e-12   4.8700451575470693e-12   7.2887895662079423e-12   7.6480047054478075e-12   8.3916215525573454e-12   8.3295329093145905e-12   9.4664946092311125e-12   9.4786142363192572e-12   1.0492431672344873e-11   1.0494142466800033e-11   1.1429084904785328e-11   1.1434728797041334e-11   1.2239926028414561e-11   1.2247553082184652e-11   1.2893964463325430e-11   1.2903897561103993e-11   1.3366032941230028e-11   1.3378213845640268e-11   1.3637992213153159e-11   1.3652309294673480e-11   1.3699389313318672e-11   1.3715646011095277e-11   1.3547863988383110e-11   1.3565789498055780e-11   1.3189238730687386e-11   1.3208498095168426e-11   1.2637294952387124e-11   1.2657501956511093e-11   1.1913243300100983e-11   1.1933975326130072e-11   1.1044908501124324e-11   1.1065722783074046e-11   1.0065660051965330e-11   1.0086110700645545e-11   9.0131298370874056e-12   9.0327849801877790e-12   7.9277659473841253e-12   7.9462243345964790e-12   6.8512783059856555e-12   6.8681847092381956e-12   5.8250356755375385e-12   5.8400946538027374e-12   4.8884763873189106e-12   4.9014631534108544e-12   4.0775905490272919e-12   4.0883618392177419e-12   3.4235464984422702e-12   3.4320367097874467e-12   2.9514549123992660e-12   2.9577161493959116e-12   2.6795442222505592e-12   2.6836096990655609e-12   2.6180325431790640e-12   2.6203041794939087e-12   2.7694674649075403e-12   2.7702306498358624e-12   3.1320579950529704e-12   3.1263436121869770e-12   3.6495917724712905e-12   3.6881709423133011e-12   4.6386576429233731e-12   4.3358531360588556e-12   4.2619889803861691e-12   5.7169530477070549e-12   9.0843638681104503e-12   6.9253111871621181e-12   9.9462523533577055e-12   1.0462711615240612e-11   1.1064285754686444e-11   1.0973239641684540e-11   1.2054917333535697e-11   1.2070832043641382e-11   1.2931691154414026e-11   1.2928549334469557e-11   1.3653416242394092e-11   1.3652991203061403e-11   1.4193120813476388e-11   1.4191800992420782e-11   1.4530080185200642e-11   1.4528399155416846e-11   1.4651319793884949e-11   1.4649210832529733e-11   1.4552185314380327e-11   1.4549680970595212e-11   1.4236484594625687e-11   1.4233623116155219e-11   1.3716349255386742e-11   1.3713183722306867e-11   1.3011767303184779e-11   1.3008362386981507e-11   1.2149815091074309e-11   1.2146244643849227e-11   1.1163616731618860e-11   1.1159960934756530e-11   1.0091071125277843e-11   1.0087413413398544e-11   8.9733955067280831e-12   8.9698193697705794e-12   7.8535414803433546e-12   7.8501272633544156e-12   6.7745444069567392e-12   6.7713662367086340e-12   5.7778696046940760e-12   5.7749925299081542e-12   4.9018187731139679e-12   4.8992963748485176e-12   4.1800585506749239e-12   4.1779304497440858e-12   3.6403248380197525e-12   3.6386170997204134e-12   3.3033648672458746e-12   3.3020812590882729e-12   3.1821109299444028e-12   3.1812609253246799e-12   3.2812729882646755e-12   3.2807887572814620e-12   3.5970126510900667e-12   3.5968500916500314e-12   4.1162543669269770e-12   4.1175394211808691e-12   4.8293048591893897e-12   4.8201991179013431e-12   5.6323912073370733e-12   5.6986781585358147e-12   7.0270880852898172e-12   6.5785574870164349e-12   6.2308692907223407e-12   8.3431715468956307e-12   1.2082517181935711e-11   9.1908749512869642e-12   1.2811214598995265e-11   1.3500661991780356e-11   1.3893401699055243e-11   1.3771350383659123e-11   1.4739956089486783e-11   1.4761962293462634e-11   1.5407173822018118e-11   1.5403430455210289e-11   1.5854960052213061e-11   1.5855714784373497e-11   1.6068260098018615e-11   1.6068366459027149e-11   1.6038611044483411e-11   1.6038910877621845e-11   1.5767170641657917e-11   1.5767530542619806e-11   1.5264371784971819e-11   1.5264804359028761e-11   1.4549535314342523e-11   1.4550030061613962e-11   1.3650131638165039e-11   1.3650678450829971e-11   1.2600723872868419e-11   1.2601310433975171e-11   1.1441639837201302e-11   1.1442252370997186e-11   1.0217422235122799e-11   1.0218045981386878e-11   8.9751168939706236e-12   8.9757366694547488e-12   7.7624648090417000e-12   7.7630655893485631e-12   6.6260674806901338e-12   6.6266349782993594e-12   5.6095960430384843e-12   5.6101172635206698e-12   4.7521130358496642e-12   4.7525767611482654e-12   4.0865711849729607e-12   4.0869684938152952e-12   3.6385474612746913e-12   3.6388716917937475e-12   3.4252586622588344e-12   3.4255072054273958e-12   3.4549056966771753e-12   3.4550743717189059e-12   3.7263406670257564e-12   3.7264406771776911e-12   4.2291386338030886e-12   4.2291758827753980e-12   4.9441928972062005e-12   4.9439226242630133e-12   5.8417491568064776e-12   5.8437176866138007e-12   6.9048727333258356e-12   6.8898675528533710e-12   7.9768110572076678e-12   8.0711525465989458e-12   9.7731460624414450e-12   9.1568733912032301e-12   8.4373930115142988e-12   1.1277153674933723e-11   1.5247923880970448e-11   1.1579680196899504e-11   1.5773623162472410e-11   1.6645124958801955e-11   1.6770909025585454e-11   1.6616501331195872e-11   1.7420857198888854e-11   1.7448967596522294e-11   1.7828966144856243e-11   1.7824021173381820e-11   1.7957315630303254e-11   1.7958145106967059e-11   1.7804548002933791e-11   1.7804382345634755e-11   1.7375993262491695e-11   1.7375974279822837e-11   1.6688195156124904e-11   1.6688135928318834e-11   1.5767577839177692e-11   1.5767507835612885e-11   1.4649520180270169e-11   1.4649436405743067e-11   1.3376988264961056e-11   1.3376893180182654e-11   1.1998884426114319e-11   1.1998780395864272e-11   1.0568168144637835e-11   1.0568058008258425e-11   9.1398208260192135e-12   9.1397076788424998e-12   7.7687329052465334e-12   7.7686199743940208e-12   6.5075944383969254e-12   6.5074849511747928e-12   5.4048702576679812e-12   5.4047673133516825e-12   4.5029374993151364e-12   4.5028439519480040e-12   3.8364571053668439e-12   3.8363754349397379e-12   3.4310417734143789e-12   3.4309740582630624e-12   3.3022720125930592e-12   3.3022195374624963e-12   3.4550963120014201e-12   3.4550606127301888e-12   3.8836445090173204e-12   3.8836239313460911e-12   4.5714484953480576e-12   4.5714421564622708e-12   5.4920320897606119e-12   5.4920900814410364e-12   6.6105071836419952e-12   6.6100997680702861e-12   7.8801264156572622e-12   7.8832858728042722e-12   9.2777411474047037e-12   9.2570906992704296e-12   1.0590294895609829e-11   1.0716028087260019e-11   1.2768207934140407e-11   1.1973370427397345e-11   1.0795924892933862e-11   1.4410154663994478e-11   1.8458940967647072e-11   1.3999929491999965e-11   1.8719620738114242e-11   1.9775250879409649e-11   1.9586168638317305e-11   1.9399333795450331e-11   1.9994324176621568e-11   2.0028528736270430e-11   2.0103278481398242e-11   2.0097212230509013e-11   1.9878383117482760e-11   1.9879438990981828e-11   1.9333366006329406e-11   1.9333194294756261e-11   1.8488356268674803e-11   1.8488394608355632e-11   1.7375953156077503e-11   1.7375959840101499e-11   1.6038888053976748e-11   1.6038901537716996e-11   1.4528545759636760e-11   1.4528559343025957e-11   1.2902967514447825e-11   1.2902981618618218e-11   1.1224623152820264e-11   1.1224637246855526e-11   9.5580102897906159e-12   9.5580240427364176e-12   7.9671757411595855e-12   7.9671888537389503e-12   6.5132542609734071e-12   6.5132664803842589e-12   5.2521191770442936e-12   5.2521302942149556e-12   4.2322352215375623e-12   4.2322450710557256e-12   3.4927960679290388e-12   3.4928045311311798e-12   3.0622181712705290e-12   3.0622251592727690e-12   2.9570487063965270e-12   2.9570542090851018e-12   3.1813299152439032e-12   3.1813337701263773e-12   3.7264431511987816e-12   3.7264456637907928e-12   4.5714409961708629e-12   4.5714421214899994e-12   5.6838614580313603e-12   5.6838507413318377e-12   7.0208558930333194e-12   7.0209387467213148e-12   8.5318279114724559e-12   8.5311835046892804e-12   1.0153357930066417e-11   1.0157602283181794e-11   1.1857333565920112e-11   1.1830558457061485e-11   1.3373223238263274e-11   1.3531264136853872e-11   1.5898087115407314e-11   1.4919418379429216e-11   1.3216105086351376e-11   1.7620765335363763e-11   2.1592168826292464e-11   1.6358614095466937e-11   2.1535991013990555e-11   2.2770746312247375e-11   2.2230992571052968e-11   2.2012904703442903e-11   2.2361482988649486e-11   2.2401519228725019e-11   2.2142797072712491e-11   2.2135659681681981e-11   2.1544526780883436e-11   2.1545778354073209e-11   2.0596267327821398e-11   2.0596054810810923e-11   1.9333366512260905e-11   1.9333403522131892e-11   1.7804532707275944e-11   1.7804527046331286e-11   1.6068491424994097e-11   1.6068491271816135e-11   1.4191961764112973e-11   1.4191959161159652e-11   1.2247057102783882e-11   1.2247053286905385e-11   1.0308518941875265e-11   1.0308513872764995e-11   8.4508440469909220e-12   8.4508379908120732e-12   6.7454216801065481e-12   6.7454149444344837e-12   5.2577901703311209e-12   5.2577831093738591e-12   4.0451183297659581e-12   4.0451113149281635e-12   3.1540085041912286e-12   3.1540018996921757e-12   2.6187056838522787e-12   2.6186998257480819e-12   2.4597815159812743e-12   2.4597766775619580e-12   2.6833437292276445e-12   2.6833401356943195e-12   3.2808015612493591e-12   3.2807992400595778e-12   4.2291957756959196e-12   4.2291946703326543e-12   5.4920791124018333e-12   5.4920809813818110e-12   7.0209408863712025e-12   7.0209246785485752e-12   8.7568720632819046e-12   8.7569986651514656e-12   1.0634248560502334e-11   1.0633397653026243e-11   1.2573943388407671e-11   1.2579334113009905e-11   1.4544323843713572e-11   1.4511456357857223e-11   1.6218422770601601e-11   1.6408766352977148e-11   1.9042259646827359e-11   1.7881891711020014e-11   1.5604847463127057e-11   2.0785842027318862e-11   2.4527196698109439e-11   1.8565089900198630e-11   2.4114501684146204e-11   2.5516494141565036e-11   2.4603740180298909e-11   2.4356775165900872e-11   2.4431361506788220e-11   2.4476744711521147e-11   2.3869134554373356e-11   2.3861024353708523e-11   2.2891693098865770e-11   2.2893123089364914e-11   2.1544674302490096e-11   2.1544430202315649e-11   1.9878484653462674e-11   1.9878528541020753e-11   1.7957378381418412e-11   1.7957373164334845e-11   1.5855147241905287e-11   1.5855149371226893e-11   1.3652584352759791e-11   1.3652584396004742e-11   1.1434332126570013e-11   1.1434331545442801e-11   9.2856367603108913e-12   9.2856353800211198e-12   7.2890712731945694e-12   7.2890692522111852e-12   5.5213624468294042e-12   5.5213599521862600e-12   4.0504422683439587e-12   4.0504395002100425e-12   2.9328373647055333e-12   2.9328345307378113e-12   2.2114967341009147e-12   2.2114940309049833e-12   1.9141412543046270e-12   1.9141388507696886e-12   2.0521984083014299e-12   2.0521964194535432e-12   2.6203631267899742e-12   2.6203616163346499e-12   3.5968016982783374e-12   3.5968006310445825e-12   4.9439912087778909e-12   4.9439900646531102e-12   6.6101568697646321e-12   6.6101592834364484e-12   8.5313004999224483e-12   8.5312750818340874e-12   1.0633381235639794e-11   1.0633544131252525e-11   1.2837004718080327e-11   1.2835941832970275e-11   1.5048904359486532e-11   1.5055399049508774e-11   1.7235505104199489e-11   1.7196740051702838e-11   1.9016612212997933e-11   1.9237932707210765e-11   2.2079957282224759e-11   2.0746924953860620e-11   1.7870372187639738e-11   2.3783694662069372e-11   2.7151231465001389e-11   2.0534561700294779e-11   2.6356061992116964e-11   2.7906977002576665e-11   2.6613227490228558e-11   2.6340871084955903e-11   2.6124414744797574e-11   2.6174454998377341e-11   2.5215949085926106e-11   2.5207001140200248e-11   2.3868113851043187e-11   2.3869695694902127e-11   2.2142146430625421e-11   2.2141875476762255e-11   2.0102772422130256e-11   2.0102821215411377e-11   1.7828630428127969e-11   1.7828624191717982e-11   1.5407071425174787e-11   1.5407073473587162e-11   1.2931161458735826e-11   1.2931161239522201e-11   1.0496047291471547e-11   1.0496046544616804e-11   8.1953090656313754e-12   8.1953076190500087e-12   6.1173627345777329e-12   6.1173607749962225e-12   4.3420625191696938e-12   4.3420602171078559e-12   2.9376321540731027e-12   2.9376296996875859e-12   1.9580431127532645e-12   1.9580406897676207e-12   1.4409405319119158e-12   1.4409383007560491e-12   1.4061965440210929e-12   1.4061946259765577e-12   1.8551466194024255e-12   1.8551450760989371e-12   2.7705382515597902e-12   2.7705370736151356e-12   4.1171938970825752e-12   4.1171930556099917e-12   5.8433637078560525e-12   5.8433622801909889e-12   7.8827068749278437e-12   7.8827103346805378e-12   1.0156894257013777e-11   1.0156861310944373e-11   1.2578263376840131e-11   1.2578462695589770e-11   1.5055436300018770e-11   1.5054176479383130e-11   1.7483118093590288e-11   1.7490647003384084e-11   1.9827443856281952e-11   1.9783219876030745e-11   2.1660245068261928e-11   2.1910044374001447e-11   2.4894428863724080e-11   2.3404421328287067e-11   1.9925608406638733e-11   2.6499126235547232e-11   2.9363432871878603e-11   2.2191342339027757e-11   2.8174530058623094e-11   2.9850331892529079e-11   2.8182230833316717e-11   2.7888944278127724e-11   2.7375579161442770e-11   2.7429407883168926e-11   2.6131482938741328e-11   2.6121864564483882e-11   2.4436265273947883e-11   2.4437966758255472e-11   2.2365722435719667e-11   2.2365430932525390e-11   1.9997609254773779e-11   1.9997661997609819e-11   1.7423234617170262e-11   1.7423227927959194e-11   1.4741480752082481e-11   1.4741483106728153e-11   1.2055413927503216e-11   1.2055413949006148e-11   9.4682569077857464e-12   9.4682565279441409e-12   7.0794327849223120e-12   7.0794318221533909e-12   4.9807425993778163e-12   4.9807412419721976e-12   3.252837