<?xml version="1.0"?>
<VTKFile type="UnstructuredGrid"  version="0.1"  >
<UnstructuredGrid>
<Piece  NumberOfPoints="1089" NumberOfCells="2048">
<Points>
<DataArray  type="Float64"  NumberOfComponents="3"  format="ascii">0 0 0  0.03125 0 0  0.0625 0 0  0.09375 0 0  0.125 0 0  0.15625 0 0  0.1875 0 0  0.21875 0 0  0.25 0 0  0.28125 0 0  0.3125 0 0  0.34375 0 0  0.375 0 0  0.40625 0 0  0.4375 0 0  0.46875 0 0  0.5 0 0  0.53125 0 0  0.5625 0 0  0.59375 0 0  0.625 0 0  0.65625 0 0  0.6875 0 0  0.71875 0 0  0.75 0 0  0.78125 0 0  0.8125 0 0  0.84375 0 0  0.875 0 0  0.90625 0 0  0.9375 0 0  0.96875 0 0  1 0 0  0 0.03125 0  0.03125 0.03125 0  0.0625 0.03125 0  0.09375 0.03125 0  0.125 0.03125 0  0.15625 0.03125 0  0.1875 0.03125 0  0.21875 0.03125 0  0.25 0.03125 0  0.28125 0.03125 0  0.3125 0.03125 0  0.34375 0.03125 0  0.375 0.03125 0  0.40625 0.03125 0  0.4375 0.03125 0  0.46875 0.03125 0  0.5 0.03125 0  0.53125 0.03125 0  0.5625 0.03125 0  0.59375 0.03125 0  0.625 0.03125 0  0.65625 0.03125 0  0.6875 0.03125 0  0.71875 0.03125 0  0.75 0.03125 0  0.78125 0.03125 0  0.8125 0.03125 0  0.84375 0.03125 0  0.875 0.03125 0  0.90625 0.03125 0  0.9375 0.03125 0  0.96875 0.03125 0  1 0.03125 0  0 0.0625 0  0.03125 0.0625 0  0.0625 0.0625 0  0.09375 0.0625 0  0.125 0.0625 0  0.15625 0.0625 0  0.1875 0.0625 0  0.21875 0.0625 0  0.25 0.0625 0  0.28125 0.0625 0  0.3125 0.0625 0  0.34375 0.0625 0  0.375 0.0625 0  0.40625 0.0625 0  0.4375 0.0625 0  0.46875 0.0625 0  0.5 0.0625 0  0.53125 0.0625 0  0.5625 0.0625 0  0.59375 0.0625 0  0.625 0.0625 0  0.65625 0.0625 0  0.6875 0.0625 0  0.71875 0.0625 0  0.75 0.0625 0  0.78125 0.0625 0  0.8125 0.0625 0  0.84375 0.0625 0  0.875 0.0625 0  0.90625 0.0625 0  0.9375 0.0625 0  0.96875 0.0625 0  1 0.0625 0  0 0.09375 0  0.03125 0.09375 0  0.0625 0.09375 0  0.09375 0.09375 0  0.125 0.09375 0  0.15625 0.09375 0  0.1875 0.09375 0  0.21875 0.09375 0  0.25 0.09375 0  0.28125 0.09375 0  0.3125 0.09375 0  0.34375 0.09375 0  0.375 0.09375 0  0.40625 0.09375 0  0.4375 0.09375 0  0.46875 0.09375 0  0.5 0.09375 0  0.53125 0.09375 0  0.5625 0.09375 0  0.59375 0.09375 0  0.625 0.09375 0  0.65625 0.09375 0  0.6875 0.09375 0  0.71875 0.09375 0  0.75 0.09375 0  0.78125 0.09375 0  0.8125 0.09375 0  0.84375 0.09375 0  0.875 0.09375 0  0.90625 0.09375 0  0.9375 0.09375 0  0.96875 0.09375 0  1 0.09375 0  0 0.125 0  0.03125 0.125 0  0.0625 0.125 0  0.09375 0.125 0  0.125 0.125 0  0.15625 0.125 0  0.1875 0.125 0  0.21875 0.125 0  0.25 0.125 0  0.28125 0.125 0  0.3125 0.125 0  0.34375 0.125 0  0.375 0.125 0  0.40625 0.125 0  0.4375 0.125 0  0.46875 0.125 0  0.5 0.125 0  0.53125 0.125 0  0.5625 0.125 0  0.59375 0.125 0  0.625 0.125 0  0.65625 0.125 0  0.6875 0.125 0  0.71875 0.125 0  0.75 0.125 0  0.78125 0.125 0  0.8125 0.125 0  0.84375 0.125 0  0.875 0.125 0  0.90625 0.125 0  0.9375 0.125 0  0.96875 0.125 0  1 0.125 0  0 0.15625 0  0.03125 0.15625 0  0.0625 0.15625 0  0.09375 0.15625 0  0.125 0.15625 0  0.15625 0.15625 0  0.1875 0.15625 0  0.21875 0.15625 0  0.25 0.15625 0  0.28125 0.15625 0  0.3125 0.15625 0  0.34375 0.15625 0  0.375 0.15625 0  0.40625 0.15625 0  0.4375 0.15625 0  0.46875 0.15625 0  0.5 0.15625 0  0.53125 0.15625 0  0.5625 0.15625 0  0.59375 0.15625 0  0.625 0.15625 0  0.65625 0.15625 0  0.6875 0.15625 0  0.71875 0.15625 0  0.75 0.15625 0  0.78125 0.15625 0  0.8125 0.15625 0  0.84375 0.15625 0  0.875 0.15625 0  0.90625 0.15625 0  0.9375 0.15625 0  0.96875 0.15625 0  1 0.15625 0  0 0.1875 0  0.03125 0.1875 0  0.0625 0.1875 0  0.09375 0.1875 0  0.125 0.1875 0  0.15625 0.1875 0  0.1875 0.1875 0  0.21875 0.1875 0  0.25 0.1875 0  0.28125 0.1875 0  0.3125 0.1875 0  0.34375 0.1875 0  0.375 0.1875 0  0.40625 0.1875 0  0.4375 0.1875 0  0.46875 0.1875 0  0.5 0.1875 0  0.53125 0.1875 0  0.5625 0.1875 0  0.59375 0.1875 0  0.625 0.1875 0  0.65625 0.1875 0  0.6875 0.1875 0  0.71875 0.1875 0  0.75 0.1875 0  0.78125 0.1875 0  0.8125 0.1875 0  0.84375 0.1875 0  0.875 0.1875 0  0.90625 0.1875 0  0.9375 0.1875 0  0.96875 0.1875 0  1 0.1875 0  0 0.21875 0  0.03125 0.21875 0  0.0625 0.21875 0  0.09375 0.21875 0  0.125 0.21875 0  0.15625 0.21875 0  0.1875 0.21875 0  0.21875 0.21875 0  0.25 0.21875 0  0.28125 0.21875 0  0.3125 0.21875 0  0.34375 0.21875 0  0.375 0.21875 0  0.40625 0.21875 0  0.4375 0.21875 0  0.46875 0.21875 0  0.5 0.21875 0  0.53125 0.21875 0  0.5625 0.21875 0  0.59375 0.21875 0  0.625 0.21875 0  0.65625 0.21875 0  0.6875 0.21875 0  0.71875 0.21875 0  0.75 0.21875 0  0.78125 0.21875 0  0.8125 0.21875 0  0.84375 0.21875 0  0.875 0.21875 0  0.90625 0.21875 0  0.9375 0.21875 0  0.96875 0.21875 0  1 0.21875 0  0 0.25 0  0.03125 0.25 0  0.0625 0.25 0  0.09375 0.25 0  0.125 0.25 0  0.15625 0.25 0  0.1875 0.25 0  0.21875 0.25 0  0.25 0.25 0  0.28125 0.25 0  0.3125 0.25 0  0.34375 0.25 0  0.375 0.25 0  0.40625 0.25 0  0.4375 0.25 0  0.46875 0.25 0  0.5 0.25 0  0.53125 0.25 0  0.5625 0.25 0  0.59375 0.25 0  0.625 0.25 0  0.65625 0.25 0  0.6875 0.25 0  0.71875 0.25 0  0.75 0.25 0  0.78125 0.25 0  0.8125 0.25 0  0.84375 0.25 0  0.875 0.25 0  0.90625 0.25 0  0.9375 0.25 0  0.96875 0.25 0  1 0.25 0  0 0.28125 0  0.03125 0.28125 0  0.0625 0.28125 0  0.09375 0.28125 0  0.125 0.28125 0  0.15625 0.28125 0  0.1875 0.28125 0  0.21875 0.28125 0  0.25 0.28125 0  0.28125 0.28125 0  0.3125 0.28125 0  0.34375 0.28125 0  0.375 0.28125 0  0.40625 0.28125 0  0.4375 0.28125 0  0.46875 0.28125 0  0.5 0.28125 0  0.53125 0.28125 0  0.5625 0.28125 0  0.59375 0.28125 0  0.625 0.28125 0  0.65625 0.28125 0  0.6875 0.28125 0  0.71875 0.28125 0  0.75 0.28125 0  0.78125 0.28125 0  0.8125 0.28125 0  0.84375 0.28125 0  0.875 0.28125 0  0.90625 0.28125 0  0.9375 0.28125 0  0.96875 0.28125 0  1 0.28125 0  0 0.3125 0  0.03125 0.3125 0  0.0625 0.3125 0  0.09375 0.3125 0  0.125 0.3125 0  0.15625 0.3125 0  0.1875 0.3125 0  0.21875 0.3125 0  0.25 0.3125 0  0.28125 0.3125 0  0.3125 0.3125 0  0.34375 0.3125 0  0.375 0.3125 0  0.40625 0.3125 0  0.4375 0.3125 0  0.46875 0.3125 0  0.5 0.3125 0  0.53125 0.3125 0  0.5625 0.3125 0  0.59375 0.3125 0  0.625 0.3125 0  0.65625 0.3125 0  0.6875 0.3125 0  0.71875 0.3125 0  0.75 0.3125 0  0.78125 0.3125 0  0.8125 0.3125 0  0.84375 0.3125 0  0.875 0.3125 0  0.90625 0.3125 0  0.9375 0.3125 0  0.96875 0.3125 0  1 0.3125 0  0 0.34375 0  0.03125 0.34375 0  0.0625 0.34375 0  0.09375 0.34375 0  0.125 0.34375 0  0.15625 0.34375 0  0.1875 0.34375 0  0.21875 0.34375 0  0.25 0.34375 0  0.28125 0.34375 0  0.3125 0.34375 0  0.34375 0.34375 0  0.375 0.34375 0  0.40625 0.34375 0  0.4375 0.34375 0  0.46875 0.34375 0  0.5 0.34375 0  0.53125 0.34375 0  0.5625 0.34375 0  0.59375 0.34375 0  0.625 0.34375 0  0.65625 0.34375 0  0.6875 0.34375 0  0.71875 0.34375 0  0.75 0.34375 0  0.78125 0.34375 0  0.8125 0.34375 0  0.84375 0.34375 0  0.875 0.34375 0  0.90625 0.34375 0  0.9375 0.34375 0  0.96875 0.34375 0  1 0.34375 0  0 0.375 0  0.03125 0.375 0  0.0625 0.375 0  0.09375 0.375 0  0.125 0.375 0  0.15625 0.375 0  0.1875 0.375 0  0.21875 0.375 0  0.25 0.375 0  0.28125 0.375 0  0.3125 0.375 0  0.34375 0.375 0  0.375 0.375 0  0.40625 0.375 0  0.4375 0.375 0  0.46875 0.375 0  0.5 0.375 0  0.53125 0.375 0  0.5625 0.375 0  0.59375 0.375 0  0.625 0.375 0  0.65625 0.375 0  0.6875 0.375 0  0.71875 0.375 0  0.75 0.375 0  0.78125 0.375 0  0.8125 0.375 0  0.84375 0.375 0  0.875 0.375 0  0.90625 0.375 0  0.9375 0.375 0  0.96875 0.375 0  1 0.375 0  0 0.40625 0  0.03125 0.40625 0  0.0625 0.40625 0  0.09375 0.40625 0  0.125 0.40625 0  0.15625 0.40625 0  0.1875 0.40625 0  0.21875 0.40625 0  0.25 0.40625 0  0.28125 0.40625 0  0.3125 0.40625 0  0.34375 0.40625 0  0.375 0.40625 0  0.40625 0.40625 0  0.4375 0.40625 0  0.46875 0.40625 0  0.5 0.40625 0  0.53125 0.40625 0  0.5625 0.40625 0  0.59375 0.40625 0  0.625 0.40625 0  0.65625 0.40625 0  0.6875 0.40625 0  0.71875 0.40625 0  0.75 0.40625 0  0.78125 0.40625 0  0.8125 0.40625 0  0.84375 0.40625 0  0.875 0.40625 0  0.90625 0.40625 0  0.9375 0.40625 0  0.96875 0.40625 0  1 0.40625 0  0 0.4375 0  0.03125 0.4375 0  0.0625 0.4375 0  0.09375 0.4375 0  0.125 0.4375 0  0.15625 0.4375 0  0.1875 0.4375 0  0.21875 0.4375 0  0.25 0.4375 0  0.28125 0.4375 0  0.3125 0.4375 0  0.34375 0.4375 0  0.375 0.4375 0  0.40625 0.4375 0  0.4375 0.4375 0  0.46875 0.4375 0  0.5 0.4375 0  0.53125 0.4375 0  0.5625 0.4375 0  0.59375 0.4375 0  0.625 0.4375 0  0.65625 0.4375 0  0.6875 0.4375 0  0.71875 0.4375 0  0.75 0.4375 0  0.78125 0.4375 0  0.8125 0.4375 0  0.84375 0.4375 0  0.875 0.4375 0  0.90625 0.4375 0  0.9375 0.4375 0  0.96875 0.4375 0  1 0.4375 0  0 0.46875 0  0.03125 0.46875 0  0.0625 0.46875 0  0.09375 0.46875 0  0.125 0.46875 0  0.15625 0.46875 0  0.1875 0.46875 0  0.21875 0.46875 0  0.25 0.46875 0  0.28125 0.46875 0  0.3125 0.46875 0  0.34375 0.46875 0  0.375 0.46875 0  0.40625 0.46875 0  0.4375 0.46875 0  0.46875 0.46875 0  0.5 0.46875 0  0.53125 0.46875 0  0.5625 0.46875 0  0.59375 0.46875 0  0.625 0.46875 0  0.65625 0.46875 0  0.6875 0.46875 0  0.71875 0.46875 0  0.75 0.46875 0  0.78125 0.46875 0  0.8125 0.46875 0  0.84375 0.46875 0  0.875 0.46875 0  0.90625 0.46875 0  0.9375 0.46875 0  0.96875 0.46875 0  1 0.46875 0  0 0.5 0  0.03125 0.5 0  0.0625 0.5 0  0.09375 0.5 0  0.125 0.5 0  0.15625 0.5 0  0.1875 0.5 0  0.21875 0.5 0  0.25 0.5 0  0.28125 0.5 0  0.3125 0.5 0  0.34375 0.5 0  0.375 0.5 0  0.40625 0.5 0  0.4375 0.5 0  0.46875 0.5 0  0.5 0.5 0  0.53125 0.5 0  0.5625 0.5 0  0.59375 0.5 0  0.625 0.5 0  0.65625 0.5 0  0.6875 0.5 0  0.71875 0.5 0  0.75 0.5 0  0.78125 0.5 0  0.8125 0.5 0  0.84375 0.5 0  0.875 0.5 0  0.90625 0.5 0  0.9375 0.5 0  0.96875 0.5 0  1 0.5 0  0 0.53125 0  0.03125 0.53125 0  0.0625 0.53125 0  0.09375 0.53125 0  0.125 0.53125 0  0.15625 0.53125 0  0.1875 0.53125 0  0.21875 0.53125 0  0.25 0.53125 0  0.28125 0.53125 0  0.3125 0.53125 0  0.34375 0.53125 0  0.375 0.53125 0  0.40625 0.53125 0  0.4375 0.53125 0  0.46875 0.53125 0  0.5 0.53125 0  0.53125 0.53125 0  0.5625 0.53125 0  0.59375 0.53125 0  0.625 0.53125 0  0.65625 0.53125 0  0.6875 0.53125 0  0.71875 0.53125 0  0.75 0.53125 0  0.78125 0.531
[...]
<CellData  Scalars="f_176233"> 
<DataArray  type="Float64"  Name="f_176233"  format="ascii">2.3557237310243269e-07   2.3410414259979062e-07   2.2497718813163978e-07   2.3078613414141127e-07   2.1065953766989697e-07   2.1763431276605760e-07   1.9302154384097733e-07   2.0086837813361751e-07   1.7272000295033990e-07   1.8119628526040292e-07   1.5052873155571909e-07   1.5938889532196041e-07   1.2729812797020362e-07   1.3628633670674156e-07   1.0391988589444466e-07   1.1277614442680332e-07   8.1291913132122634e-08   8.9761359835148000e-08   6.0283531949558720e-08   6.8126121374535192e-08   4.1701949944388173e-08   4.8701673379854281e-08   2.6261183465485879e-08   3.2234381791926004e-08   1.4554590572499094e-08   1.9357022919102328e-08   7.0320542001722021e-09   1.0564448316010461e-08   3.9826857994809201e-09   6.1945571379879632e-09   5.5237109650773825e-09   6.4153043336655206e-09   1.1595962488235399e-08   1.1218242160305810e-08   2.1966153058560389e-08   2.0418842110686343e-08   3.6235839627946928e-08   3.3663584180853978e-08   5.3856734411323373e-08   5.0443540544101769e-08   7.4151773583016045e-08   7.0113931252117851e-08   9.6341133267214842e-08   9.1918900143176836e-08   1.1957219180220943e-07   1.1502055863862870e-07   1.4295228468913234e-07   1.3853118137358042e-07   1.6558298968938783e-07   1.6154731742000996e-07   1.8659462081212938e-07   1.8318451019935564e-07   2.0517962295583205e-07   2.0261130507369386e-07   2.2062377895797877e-07   2.1908127918623682e-07   2.3233532348661037e-07   2.3196196936084722e-07   2.3988077689684749e-07   2.4076004993153683e-07   2.4305442874163411e-07   2.4513605459370489e-07   2.3826092800371352e-07   2.4501318891581644e-07   2.2827708809242813e-07   2.1905343340249532e-07   2.1675169565822574e-07   2.1477101231626109e-07   2.0161294366006771e-07   2.0092964345413517e-07   1.8346990562388510e-07   1.8408729399597737e-07   1.6304075439806040e-07   1.6486704397470616e-07   1.4111357790598171e-07   1.4400873861933530e-07   1.1853139282961444e-07   1.2231832359011330e-07   9.6161971669337040e-08   1.0063155001041511e-07   7.4864867731523312e-08   7.9782697301520707e-08   5.5458448897942655e-08   6.0573300275511573e-08   3.8688454538448556e-08   4.3741688000902542e-08   2.5199332398000879e-08   2.9934740597311203e-08   1.5509467502818815e-08   1.9683079277396408e-08   9.9912569777265184e-09   1.3380693589432586e-08   8.8567964430553406e-09   1.1269807547213113e-08   1.2149727642352343e-08   1.3431573312074657e-08   1.9743560164976154e-08   1.9782952772408852e-08   3.1346531387428465e-08   3.0079907891558858e-08   4.6512817536974941e-08   4.3926777575588427e-08   6.4659664704069347e-08   6.0791480790732453e-08   8.5089781146964136e-08   8.0025961676880779e-08   1.0701813006960106e-07   1.0089109096375080e-07   1.2960209334866300e-07   1.2258506695111787e-07   1.5197384871676109e-07   1.4427422531125169e-07   1.7327372400602513e-07   1.6512507570574872e-07   1.9268327646779486e-07   1.8433633877622311e-07   2.0945693238311693e-07   2.0116976200980552e-07   2.2295133792074477e-07   2.1497854295018029e-07   2.3265244938705941e-07   2.2523222830478130e-07   2.3820414682944201e-07   2.3153697010519293e-07   2.3941737124758710e-07   2.3364180521352481e-07   2.3171703310434157e-07   2.3155201474111278e-07   2.1084382553464270e-07   2.0064046491267016e-07   1.9856070580434290e-07   1.9537508798736453e-07   1.8326212414347226e-07   1.8132287154087821e-07   1.6555611371919846e-07   1.6488439101372956e-07   1.4611675586608224e-07   1.4667462177450981e-07   1.2569420799758784e-07   1.2738763198711469e-07   1.0507509198928682e-07   1.0776323589270714e-07   8.5052543925807922e-08   8.8556199523026245e-08   6.6396334562148412e-08   7.0505356288761594e-08   4.9823551353526064e-08   5.4304856285212884e-08   3.5971147324510811e-08   4.0577542666648725e-08   2.5371506810169437e-08   2.9851100200399398e-08   1.8432004583556729e-08   2.2537831571502631e-08   1.5419358582663233e-08   1.8918843268475194e-08   1.6449383443990772e-08   1.9133258762175787e-08   2.1482541018810756e-08   2.3172880044493777e-08   3.0325459834592104e-08   3.0882506275870836e-08   4.2638365468907694e-08   4.1965899154903801e-08   5.7948136376575305e-08   5.5997166707328470e-08   7.5666483453948663e-08   7.2437128494948473e-08   9.5112554756735817e-08   9.0654033587294701e-08   1.1553909713518281e-07   1.0994783532057368e-07   1.3616117084993256e-07   1.2957709022442181e-07   1.5618631796471852e-07   1.4878744788329173e-07   1.7484503625975104e-07   1.6684063747685995e-07   1.9142041342795783e-07   1.8304283692067160e-07   2.0527582972338435e-07   1.9677132880137168e-07   2.1587968709136455e-07   2.0749838982287009e-07   2.2282579205460424e-07   2.1481137118416905e-07   2.2584778671218802e-07   2.1842805280256867e-07   2.2479750995610624e-07   2.1819982199822933e-07   2.1550893532027925e-07   2.1424008439724985e-07   1.9015054839717679e-07   1.7942032809133646e-07   1.7759258316913947e-07   1.7337503168631592e-07   1.6262555568093822e-07   1.5958061743160108e-07   1.4590403340558473e-07   1.4407033037773516e-07   1.2805588382509463e-07   1.2742689409868427e-07   1.0976581698759027e-07   1.1028761413185779e-07   9.1737310422078684e-08   9.3308793119232972e-08   7.4663820980962099e-08   7.7142222891012329e-08   5.9201878899971518e-08   6.2409224065153872e-08   4.5945915296478290e-08   4.9676202678001804e-08   3.5405489877179464e-08   3.9432688544106503e-08   2.7985754322465503e-08   3.2072486617359474e-08   2.3971908040655459e-08   2.7878552058023418e-08   2.3518251835847047e-08   2.7012131556374140e-08   2.6642265346591932e-08   2.9506578558792074e-08   3.3223938701949942e-08   3.5266079050301338e-08   4.3010385570472362e-08   4.4069337738862036e-08   5.5625561078931156e-08   5.5578083968864548e-08   7.0584711533685182e-08   6.9350071196792133e-08   8.7313000892839585e-08   8.4856070923542553e-08   1.0516759846651747e-07   1.0150020829920367e-07   1.2346237959457806e-07   1.1864285808088870e-07   1.4149429127428169e-07   1.3562522111620334e-07   1.5857037169886485e-07   1.5179463665488013e-07   1.7403438779116618e-07   1.6652965658567841e-07   1.8729206305046196e-07   1.7926391397491823e-07   1.9783388492050159e-07   1.8950785675786726e-07   2.0525443442590516e-07   1.9686748155340107e-07   2.0926690404010933e-07   2.0105927908849253e-07   2.0971306392495062e-07   2.0192099048228837e-07   2.0654661330851299e-07   1.9941221943983010e-07   1.9594648589117312e-07   1.9374425244694753e-07   1.6709379258829364e-07   1.5618462419023016e-07   1.5466717967123042e-07   1.4963536756733087e-07   1.4051266736774514e-07   1.3653097037371926e-07   1.2528541844417646e-07   1.2242791029194683e-07   1.0955983004694029e-07   1.0784971521300551e-07   9.3937678999081463e-08   9.3356486716834330e-08   7.9018720198528076e-08   7.9503715642356111e-08   6.5376371304914495e-08   6.6822881497416294e-08   5.3535117612952795e-08   5.5800982620059549e-08   4.3950201506188128e-08   4.6861553366984058e-08   3.6990105150389250e-08   4.0348203178872626e-08   3.2922400259337266e-08   3.6511327723196813e-08   3.1903479150207670e-08   3.5498457765644782e-08   3.3972555017360195e-08   3.7348584054234334e-08   3.9050161529380257e-08   4.1990660678264762e-08   4.6941210227707534e-08   4.9246338283914384e-08   5.7342489045217436e-08   5.8836820093336230e-08   6.9854314356532154e-08   7.0393576799788280e-08   8.3995889150706141e-08   8.3472508613125326e-08   9.9223777378597880e-08   9.7571010374582590e-08   1.1495278472615962e-07   1.1214728405626693e-07   1.3057844356975815e-07   1.2664115652002525e-07   1.4550023799455134e-07   1.4049560233824781e-07   1.5914467519711740e-07   1.5317814393789945e-07   1.7098731124245898e-07   1.6420130496994740e-07   1.8057286623873502e-07   1.7314132697241023e-07   1.8753260394874975e-07   1.7965442244733374e-07   1.9159819640282064e-07   1.8348992995773199e-07   1.9261136253980761e-07   1.8449986257149998e-07   1.9053053151092942e-07   1.8264479561060557e-07   1.8540710281220670e-07   1.7799092300610780e-07   1.7377915816266000e-07   1.7083354680165263e-07   1.4257950560624086e-07   1.3181874798133154e-07   1.3067270106813527e-07   1.2507124443958163e-07   1.1777187402953977e-07   1.1306317071796443e-07   1.0449369980819360e-07   1.0078783195596194e-07   9.1342140270636334e-08   8.8692644851120402e-08   7.8820861899382535e-08   7.7242690118093081e-08   6.7410154199126999e-08   6.6877303363307054e-08   5.7548252248418168e-08   5.7994213419812010e-08   4.9614136011234337e-08   5.0934429386485139e-08   4.3912785238683255e-08   4.5969101180673182e-08   4.0663387335145691e-08   4.3289011226184411e-08   3.9990892004262755e-08   4.2997176569527405e-08   4.1921206079961500e-08   4.5104853710860134e-08   4.6380200036301880e-08   4.9531089581714521e-08   5.3196559476772543e-08   5.6105826246556068e-08   6.2108370501130217e-08   6.4576434162758355e-08   7.2773185541482681e-08   7.4617419994189699e-08   8.4781182893475613e-08   8.5842934602230905e-08   9.7670914346529630e-08   9.7821600029129760e-08   1.1094703584915798e-07   1.1009308550211937e-07   1.2409933982145167e-07   1.2218579538948433e-07   1.3662235748726530e-07   1.3363498928380422e-07   1.4803477702611405e-07   1.4400063763474682e-07   1.5789792878389006e-07   1.5288432620286865e-07   1.6583262086015269e-07   1.5994455862233827e-07   1.7153366470444043e-07   1.6490986728779883e-07   1.7478151044347430e-07   1.6758922738904926e-07   1.7545052787701183e-07   1.6787937839733618e-07   1.7351358240016327e-07   1.6576879302241924e-07   1.6904375930307039e-07   1.6133845524936618e-07   1.6218072662204239e-07   1.5475507708226935e-07   1.4986165107632137e-07   1.4638350731742320e-07   1.1755246852016873e-07   1.0725605178865675e-07   1.0653665947594917e-07   1.0062685438804339e-07   9.5276578245960624e-08   9.0081005904658137e-08   8.4325915668023141e-08   7.9982532735066963e-08   7.4101517498035592e-08   7.0691365702717083e-08   6.4995588961182267e-08   6.2564478737267950e-08   5.7357386836606481e-08   5.5913901622184926e-08   5.1480093382139875e-08   5.0994887322924450e-08   4.7589438560824727e-08   4.7996200489589933e-08   4.5834918552905892e-08   4.7032912415700067e-08   4.6283985561788201e-08   4.8141962616426947e-08   4.8919423563200825e-08   5.1280707405209501e-08   5.3639996301484240e-08   5.6328532610066028e-08   6.0264332823247246e-08   6.3091472219144666e-08   6.8537895989028311e-08   7.1309653204348492e-08   7.8142763687397784e-08   8.0667277446763242e-08   8.8709845796311488e-08   9.0804754998125684e-08   9.9833066977921527e-08   1.0133252110755658e-07   1.1108497011113975e-07   1.1184600534382952e-07   1.2203314064658286e-07   1.2194117720953123e-07   1.3225682055344977e-07   1.3123007065944456e-07   1.4136307299923840e-07   1.3935569079845900e-07   1.4900187565980473e-07   1.4600572975722306e-07   1.5487956075685018e-07   1.5092456443158541e-07   1.5877008214026484e-07   1.5392307479740894e-07   1.6052367278538270e-07   1.5488590569409244e-07   1.6007256046961844e-07   1.5377589507202568e-07   1.5743353455287348e-07   1.5063550695209400e-07   1.5270718148906254e-07   1.4558523599031632e-07   1.4607411749343210e-07   1.3881932646527219e-07   1.3775362061719199e-07   1.3059541757620818e-07   1.2511330062556736e-07   1.2133187879907624e-07   9.2974073975776221e-08   8.3439063090536454e-08   8.3188965310999234e-08   7.7241365256321326e-08   7.3892148406078175e-08   6.8468423291619680e-08   6.5556539283507716e-08   6.0812278577800618e-08   5.8499584602368183e-08   5.4537832082684168e-08   5.2992390857557174e-08   4.9885660366763736e-08   4.9246217656186818e-08   4.7034400723699436e-08   4.7404754094802542e-08   4.6093481426561252e-08   4.7538613520495491e-08   4.7098899027227458e-08   4.9642585589182612e-08   5.0011886223571555e-08   5.3635799889198701e-08   5.4720415783460557e-08   5.9364808472128986e-08   6.1043498631763474e-08   6.6609468097220775e-08   6.8738126477034699e-08   7.5091392426522871e-08   7.7508599234404626e-08   8.4484646216793297e-08   8.7017880533102877e-08   9.4428268526148038e-08   9.6900544504574895e-08   1.0454014255442112e-07   1.0677681539430556e-07   1.1443167851114145e-07   1.1626715967063129e-07   1.2372274495209492e-07   1.2500686931552674e-07   1.3205627459807365e-07   1.3266007553874171e-07   1.3911198315047389e-07   1.3893265418458114e-07   1.4461867363124528e-07   1.4358352678984215e-07   1.4836465291930786e-07   1.4643392296447431e-07   1.5020585961633652e-07   1.4737424821753869e-07   1.5007139068250596e-07   1.4636829362902939e-07   1.4796621634080342e-07   1.4345462657946707e-07   1.4397098546219288e-07   1.3874511175838483e-07   1.3823893356356738e-07   1.3242062639290186e-07   1.3098985673298795e-07   1.2472415205294067e-07   1.2250118090345057e-07   1.1595175797269229e-07   1.1306194770827500e-07   1.0643918863440986e-07   1.0048531806645350e-07   9.6640603690528881e-08   6.9788199496499158e-08   6.1282330546724190e-08   6.1527678013295681e-08   5.5813233176113055e-08   5.4441161598707153e-08   4.9056239838280218e-08   4.8906981956977572e-08   4.4014190874416345e-08   4.5135585351192246e-08   4.0853070574085525e-08   4.3272090846733773e-08   3.9693482159355337e-08   4.3387946169756997e-08   4.0579874299575069e-08   4.5478531442866491e-08   4.3478131747606598e-08   4.9463385073994990e-08   4.8276793745072560e-08   5.5189299358439804e-08   5.4791367070654723e-08   6.2436195818885099e-08   6.2771434947506380e-08   7.0925569014684991e-08   7.1910284768957948e-08   8.0331178816157263e-08   8.1856691643040620e-08   9.0291580562692468e-08   9.2228410208299922e-08   1.0042401065216041e-07   1.0262685879730604e-07   1.1033909294557268e-07   1.1265243244806133e-07   1.1965580008295688e-07   1.2191985629767970e-07   1.2801609427199771e-07   1.3007298907129782e-07   1.3509868462089913e-07   1.3679850750076222e-07   1.4063137214761811e-07   1.4183794557370859e-07   1.4440150793171907e-07   1.4499762582342363e-07   1.4626416241710827e-07   1.4615610095836155e-07   1.4614769192217428e-07   1.4526881990100971e-07   1.4405648872211086e-07   1.4236983912036843e-07   1.4007081015995289e-07   1.3757051395736030e-07   1.3434369627418357e-07   1.3105522121764759e-07   1.2709509876267212e-07   1.2307427941015647e-07   1.1860343848112812e-07   1.1393434359255998e-07   1.0919472688478500e-07   1.0398665932463411e-07   9.9229180086219999e-08   9.3613845149336224e-08   8.9053639294904009e-08   8.3214056422630793e-08   7.6924341734157271e-08   7.3258229471839971e-08   4.8885358073196358e-08   4.1636927536539869e-08   4.2385441721906921e-08   3.7165747172140883e-08   3.7671547405949294e-08   3.2590520179342216e-08   3.5017311942493685e-08   3.0234018249017963e-08   3.4523053501350071e-08   3.0163167174559826e-08   3.6208034397746251e-08   3.2379700851158573e-08   4.0007452273032105e-08   3.6798330278863557e-08   4.5775214284769539e-08   4.3249238583102307e-08   5.3289591757824299e-08   5.1484487852051438e-08   6.2261755163936877e-08   6.1187557379751578e-08   7.2346874035360077e-08   7.1985521279786381e-08   8.3157363938347203e-08   8.3463386675626468e-08   9.4277775648894057e-08   9.5180042937977038e-08   1.0528075595449484e-07   1.0668521172310085e-07   1.1574346701985558e-07   1.1753674830721237e-07   1.2526383313845265e-07   1.2731763032296380e-07   1.3347599022496262e-07   1.3565198141263018e-07   1.4006434407219530e-07   1.4221951409390101e-07   1.4477569694124224e-07   1.4676783675253943e-07   1.4742897635744463e-07   1.4912215173289073e-07   1.4792219219936972e-07   1.4919197177629125e-07   1.4623635477602517e-07   1.4697459669517822e-07   1.4243620354026516e-07   1.4255521674656090e-07   1.3666771898810914e-07   1.3610363892065318e-07   1.2915251454191691e-07   1.2786776232907744e-07   1.2017932590960104e-07   1.1816405408882219e-07   1.1009292602728448e-07   1.0736539294076400e-07   9.9280876497807881e-08   9.5886751093085017e-08   8.8158439813030562e-08   8.4169279684684469e-08   7.7151620914207623e-08   7.2663591537747330e-08   6.6650996580179497e-08   6.1812212726126100e-08   5.5336023121830751e-08   5.2083212919569903e-08   3.1068486058510098e-08   2.5257593548272829e-08   2.6497883099518350e-08   2.2015393723158811e-08   2.4227951695135873e-08   1.9704030158339411e-08   2.4421478793394808e-08   2.0001417525620544e-08   2.7069874880824096e-08   2.2879042719956531e-08   3.2071624008718646e-08   2.8225453846291183e-08   3.9234513791187377e-08   3.5835100881177774e-08   4.8283247866144326e-08   4.5415554363932998e-08   5.8870050185932334e-08   5.6598637127128385e-08   7.0588041786645295e-08   6.8954572303053122e-08   8.2986881029541524e-08   8.2008506902269817e-08   9.5590069986202151e-08   9.5258765525301684e-08   1.0791326421648583e-07   1.0819613193044617e-07   1.1948288362362116e-07   1.2032341833534650e-07   1.2985430977273426e-07   1.3117457134997468e-07   1.3862897054976937e-07   1.4033258099372333e-07   1.4546965560251122e-07   1.4744550494578098e-07   1.5011347394496902e-07   1.5223999241246062e-07   1.5238195570556901e-07   1.5453178795910517e-07   1.5218790978619375e-07   1.5423281166130851e-07   1.4953877391060266e-07   1.5135454348187872e-07   1.4453632842350098e-07   1.4600758183562430e-07   1.3737278506493649e-07   1.3839739335317331e-07   1.2832340147557419e-07   1.2881641730781459e-07   1.1773590597556444e-07   1.1763282834245553e-07   1.0601713988652140e-07   1.0527638971268085e-07   9.3617429916268049e-08   9.2221941397017393e-08   8.1013276155512067e-08   7.8971160170731347e-08   6.8688867332356890e-08   6.6033308207477940e-08   5.7116543350953594e-08   5.3905849115420509e-08   4.6714873649576962e-08   4.3055952435408283e-08   3.6550197125723889e-08   3.3929283008211409e-08   1.7022045505135446e-08   1.2773656142719634e-08   1.4475491689838786e-08   1.0944312853849323e-08   1.4627075320396778e-08   1.0891970383062166e-08   1.7526775589072034e-08   1.3709658430831849e-08   2.3062527675657096e-08   1.9280683806683428e-08   3.1021809615759389e-08   2.7390437525304651e-08   4.1098770646468525e-08   3.7727221655557714e-08   5.2906157163451893e-08   4.9893813441425132e-08   6.5990206978271944e-08   6.3422666928716746e-08   7.9848093679640319e-08   7.7793876737650039e-08   9.3947253382064923e-08   9.2455160576930725e-08   1.0774585225624129e-07   1.0684308610938178e-07   1.2071360905009847e-07   1.2040472534961569e-07   1.3235217301178719e-07   1.3261890441069893e-07   1.4221427449608530e-07   1.4301623225280361e-07   1.4992091252421613e-07   1.5119713902724040e-07   1.5517591889343861e-07   1.5684723104003606e-07   1.5777733918264014e-07   1.5974937239781658e-07   1.5762519330785976e-07   1.5979202912969494e-07   1.5472531740892468e-07   1.5697355516579059e-07   1.4918913946164558e-07   1.5140225548643704e-07   1.4122939731683292e-07   1.4329222403187589e-07   1.3115196385840609e-07   1.3295511634438736e-07   1.1934409365943429e-07   1.2078817317493698e-07   1.0625954311589119e-07   1.0725895539971657e-07   9.2401136088172277e-08   9.2887377055383151e-08   7.8301443970768393e-08   7.8225727414957395e-08   6.4502312089532148e-08   6.3837452000392881e-08   5.1533916328615283e-08   5.0275523707487270e-08   3.9893719628693595e-08   3.8061324296208695e-08   3.0011443879143141e-08   2.7665996629236801e-08   2.1288979401641004e-08   1.9494115541109630e-08   7.2856854278953862e-09   4.6648076408656015e-09   6.7802144114757933e-09   4.3779169664566635e-09   9.2378863652939714e-09   6.4929661881564799e-09   1.4598208663723384e-08   1.1600542651198932e-08   2.2655049734012424e-08   1.9506404435914587e-08   3.3098940342902156e-08   2.9906771601848376e-08   4.5528551171850547e-08   4.2401994871733933e-08   5.9466232279598223e-08   5.6511913688081747e-08   7.4376373037693251e-08   7.1694310461760070e-08   8.9685987204202510e-08   8.7365746939759108e-08   1.0480673390115371e-07   1.0292398586761302e-07   1.1915752834294697e-07   1.1777113566267364e-07   1.3218687335541458e-07   1.3133662818968065e-07   1.4339405354876035e-07   1.4309914637086078e-07   1.523483