<?xml version="1.0"?>
<VTKFile type="UnstructuredGrid"  version="0.1"  >
<UnstructuredGrid>
<Piece  NumberOfPoints="25" NumberOfCells="32">
<Points>
<DataArray  type="Float64"  NumberOfComponents="3"  format="ascii">0 0 0  0.25 0 0  0.5 0 0  0.75 0 0  1 0 0  0 0.25 0  0.25 0.25 0  0.5 0.25 0  0.75 0.25 0  1 0.25 0  0 0.5 0  0.25 0.5 0  0.5 0.5 0  0.75 0.5 0  1 0.5 0  0 0.75 0  0.25 0.75 0  0.5 0.75 0  0.75 0.75 0  1 0.75 0  0 1 0  0.25 1 0  0.5 1 0  0.75 1 0  1 1 0  </DataArray>
</Points>
<Cells>
<DataArray  type="UInt32"  Name="connectivity"  format="ascii">0 1 6  0 5 6  1 2 7  1 6 7  2 3 8  2 7 8  3 4 9  3 8 9  5 6 11  5 10 11  6 7 12  6 11 12  7 8 13  7 12 13  8 9 14  8 13 14  10 11 16  10 15 16  11 12 17  11 16 17  12 13 18  12 17 18  13 14 19  13 18 19  15 16 21  15 20 21  16 17 22  16 21 22  17 18 23  17 22 23  18 19 24  18 23 24  </DataArray>
<DataArray  type="UInt32"  Name="offsets"  format="ascii">3 6 9 12 15 18 21 24 27 30 33 36 39 42 45 48 51 54 57 60 63 66 69 72 75 78 81 84 87 90 93 96 </DataArray>
<DataArray  type="UInt8"  Name="types"  format="ascii">5 5 5 5 5 5 5 5 5 5 5 5 5 5 5 5 5 5 5 5 5 5 5 5 5 5 5 5 5 5 5 5 </DataArray>
</Cells>
<CellData  Scalars="f_45"> 
<DataArray  type="Float64"  Name="f_45"  format="ascii">1.9184388051545951e-08   2.2355081732762915e-08   2.3024173877470709e-08   5.0589592247274296e-08   4.4242240940734824e-09   3.3725579903841258e-08   5.4246505834098482e-09   1.1649973026958961e-08   1.0388852460428011e-07   7.9889053627154684e-08   5.4185319251224279e-08   5.0006480749566949e-08   2.7861414808840513e-08   1.9853248073727321e-08   7.2153202317517873e-08   1.0240667942042988e-07   1.0184308989328031e-07   7.1673190097934595e-08   1.9965056859625586e-08   2.7907172430632803e-08   4.9448489027734679e-08   5.3600031564018173e-08   8.0207421545146980e-08   1.0362734552988670e-07   1.1995869918977289e-08   5.8360237858688826e-09   3.3565048155311860e-08   4.1903194945696262e-09   5.0213522790258521e-08   2.3245616668559640e-08   2.2533830408006146e-08   1.9360525588590239e-08   </DataArray> 
</CellData> 
</Piece>
</UnstructuredGrid>
</VTKFile>