<?xml version="1.0"?>
<VTKFile type="UnstructuredGrid"  version="0.1"  >
<UnstructuredGrid>
<Piece  NumberOfPoints="1089" NumberOfCells="2048">
<Points>
<DataArray  type="Float64"  NumberOfComponents="3"  format="ascii">0 0 0  0.03125 0 0  0.0625 0 0  0.09375 0 0  0.125 0 0  0.15625 0 0  0.1875 0 0  0.21875 0 0  0.25 0 0  0.28125 0 0  0.3125 0 0  0.34375 0 0  0.375 0 0  0.40625 0 0  0.4375 0 0  0.46875 0 0  0.5 0 0  0.53125 0 0  0.5625 0 0  0.59375 0 0  0.625 0 0  0.65625 0 0  0.6875 0 0  0.71875 0 0  0.75 0 0  0.78125 0 0  0.8125 0 0  0.84375 0 0  0.875 0 0  0.90625 0 0  0.9375 0 0  0.96875 0 0  1 0 0  0 0.03125 0  0.03125 0.03125 0  0.0625 0.03125 0  0.09375 0.03125 0  0.125 0.03125 0  0.15625 0.03125 0  0.1875 0.03125 0  0.21875 0.03125 0  0.25 0.03125 0  0.28125 0.03125 0  0.3125 0.03125 0  0.34375 0.03125 0  0.375 0.03125 0  0.40625 0.03125 0  0.4375 0.03125 0  0.46875 0.03125 0  0.5 0.03125 0  0.53125 0.03125 0  0.5625 0.03125 0  0.59375 0.03125 0  0.625 0.03125 0  0.65625 0.03125 0  0.6875 0.03125 0  0.71875 0.03125 0  0.75 0.03125 0  0.78125 0.03125 0  0.8125 0.03125 0  0.84375 0.03125 0  0.875 0.03125 0  0.90625 0.03125 0  0.9375 0.03125 0  0.96875 0.03125 0  1 0.03125 0  0 0.0625 0  0.03125 0.0625 0  0.0625 0.0625 0  0.09375 0.0625 0  0.125 0.0625 0  0.15625 0.0625 0  0.1875 0.0625 0  0.21875 0.0625 0  0.25 0.0625 0  0.28125 0.0625 0  0.3125 0.0625 0  0.34375 0.0625 0  0.375 0.0625 0  0.40625 0.0625 0  0.4375 0.0625 0  0.46875 0.0625 0  0.5 0.0625 0  0.53125 0.0625 0  0.5625 0.0625 0  0.59375 0.0625 0  0.625 0.0625 0  0.65625 0.0625 0  0.6875 0.0625 0  0.71875 0.0625 0  0.75 0.0625 0  0.78125 0.0625 0  0.8125 0.0625 0  0.84375 0.0625 0  0.875 0.0625 0  0.90625 0.0625 0  0.9375 0.0625 0  0.96875 0.0625 0  1 0.0625 0  0 0.09375 0  0.03125 0.09375 0  0.0625 0.09375 0  0.09375 0.09375 0  0.125 0.09375 0  0.15625 0.09375 0  0.1875 0.09375 0  0.21875 0.09375 0  0.25 0.09375 0  0.28125 0.09375 0  0.3125 0.09375 0  0.34375 0.09375 0  0.375 0.09375 0  0.40625 0.09375 0  0.4375 0.09375 0  0.46875 0.09375 0  0.5 0.09375 0  0.53125 0.09375 0  0.5625 0.09375 0  0.59375 0.09375 0  0.625 0.09375 0  0.65625 0.09375 0  0.6875 0.09375 0  0.71875 0.09375 0  0.75 0.09375 0  0.78125 0.09375 0  0.8125 0.09375 0  0.84375 0.09375 0  0.875 0.09375 0  0.90625 0.09375 0  0.9375 0.09375 0  0.96875 0.09375 0  1 0.09375 0  0 0.125 0  0.03125 0.125 0  0.0625 0.125 0  0.09375 0.125 0  0.125 0.125 0  0.15625 0.125 0  0.1875 0.125 0  0.21875 0.125 0  0.25 0.125 0  0.28125 0.125 0  0.3125 0.125 0  0.34375 0.125 0  0.375 0.125 0  0.40625 0.125 0  0.4375 0.125 0  0.46875 0.125 0  0.5 0.125 0  0.53125 0.125 0  0.5625 0.125 0  0.59375 0.125 0  0.625 0.125 0  0.65625 0.125 0  0.6875 0.125 0  0.71875 0.125 0  0.75 0.125 0  0.78125 0.125 0  0.8125 0.125 0  0.84375 0.125 0  0.875 0.125 0  0.90625 0.125 0  0.9375 0.125 0  0.96875 0.125 0  1 0.125 0  0 0.15625 0  0.03125 0.15625 0  0.0625 0.15625 0  0.09375 0.15625 0  0.125 0.15625 0  0.15625 0.15625 0  0.1875 0.15625 0  0.21875 0.15625 0  0.25 0.15625 0  0.28125 0.15625 0  0.3125 0.15625 0  0.34375 0.15625 0  0.375 0.15625 0  0.40625 0.15625 0  0.4375 0.15625 0  0.46875 0.15625 0  0.5 0.15625 0  0.53125 0.15625 0  0.5625 0.15625 0  0.59375 0.15625 0  0.625 0.15625 0  0.65625 0.15625 0  0.6875 0.15625 0  0.71875 0.15625 0  0.75 0.15625 0  0.78125 0.15625 0  0.8125 0.15625 0  0.84375 0.15625 0  0.875 0.15625 0  0.90625 0.15625 0  0.9375 0.15625 0  0.96875 0.15625 0  1 0.15625 0  0 0.1875 0  0.03125 0.1875 0  0.0625 0.1875 0  0.09375 0.1875 0  0.125 0.1875 0  0.15625 0.1875 0  0.1875 0.1875 0  0.21875 0.1875 0  0.25 0.1875 0  0.28125 0.1875 0  0.3125 0.1875 0  0.34375 0.1875 0  0.375 0.1875 0  0.40625 0.1875 0  0.4375 0.1875 0  0.46875 0.1875 0  0.5 0.1875 0  0.53125 0.1875 0  0.5625 0.1875 0  0.59375 0.1875 0  0.625 0.1875 0  0.65625 0.1875 0  0.6875 0.1875 0  0.71875 0.1875 0  0.75 0.1875 0  0.78125 0.1875 0  0.8125 0.1875 0  0.84375 0.1875 0  0.875 0.1875 0  0.90625 0.1875 0  0.9375 0.1875 0  0.96875 0.1875 0  1 0.1875 0  0 0.21875 0  0.03125 0.21875 0  0.0625 0.21875 0  0.09375 0.21875 0  0.125 0.21875 0  0.15625 0.21875 0  0.1875 0.21875 0  0.21875 0.21875 0  0.25 0.21875 0  0.28125 0.21875 0  0.3125 0.21875 0  0.34375 0.21875 0  0.375 0.21875 0  0.40625 0.21875 0  0.4375 0.21875 0  0.46875 0.21875 0  0.5 0.21875 0  0.53125 0.21875 0  0.5625 0.21875 0  0.59375 0.21875 0  0.625 0.21875 0  0.65625 0.21875 0  0.6875 0.21875 0  0.71875 0.21875 0  0.75 0.21875 0  0.78125 0.21875 0  0.8125 0.21875 0  0.84375 0.21875 0  0.875 0.21875 0  0.90625 0.21875 0  0.9375 0.21875 0  0.96875 0.21875 0  1 0.21875 0  0 0.25 0  0.03125 0.25 0  0.0625 0.25 0  0.09375 0.25 0  0.125 0.25 0  0.15625 0.25 0  0.1875 0.25 0  0.21875 0.25 0  0.25 0.25 0  0.28125 0.25 0  0.3125 0.25 0  0.34375 0.25 0  0.375 0.25 0  0.40625 0.25 0  0.4375 0.25 0  0.46875 0.25 0  0.5 0.25 0  0.53125 0.25 0  0.5625 0.25 0  0.59375 0.25 0  0.625 0.25 0  0.65625 0.25 0  0.6875 0.25 0  0.71875 0.25 0  0.75 0.25 0  0.78125 0.25 0  0.8125 0.25 0  0.84375 0.25 0  0.875 0.25 0  0.90625 0.25 0  0.9375 0.25 0  0.96875 0.25 0  1 0.25 0  0 0.28125 0  0.03125 0.28125 0  0.0625 0.28125 0  0.09375 0.28125 0  0.125 0.28125 0  0.15625 0.28125 0  0.1875 0.28125 0  0.21875 0.28125 0  0.25 0.28125 0  0.28125 0.28125 0  0.3125 0.28125 0  0.34375 0.28125 0  0.375 0.28125 0  0.40625 0.28125 0  0.4375 0.28125 0  0.46875 0.28125 0  0.5 0.28125 0  0.53125 0.28125 0  0.5625 0.28125 0  0.59375 0.28125 0  0.625 0.28125 0  0.65625 0.28125 0  0.6875 0.28125 0  0.71875 0.28125 0  0.75 0.28125 0  0.78125 0.28125 0  0.8125 0.28125 0  0.84375 0.28125 0  0.875 0.28125 0  0.90625 0.28125 0  0.9375 0.28125 0  0.96875 0.28125 0  1 0.28125 0  0 0.3125 0  0.03125 0.3125 0  0.0625 0.3125 0  0.09375 0.3125 0  0.125 0.3125 0  0.15625 0.3125 0  0.1875 0.3125 0  0.21875 0.3125 0  0.25 0.3125 0  0.28125 0.3125 0  0.3125 0.3125 0  0.34375 0.3125 0  0.375 0.3125 0  0.40625 0.3125 0  0.4375 0.3125 0  0.46875 0.3125 0  0.5 0.3125 0  0.53125 0.3125 0  0.5625 0.3125 0  0.59375 0.3125 0  0.625 0.3125 0  0.65625 0.3125 0  0.6875 0.3125 0  0.71875 0.3125 0  0.75 0.3125 0  0.78125 0.3125 0  0.8125 0.3125 0  0.84375 0.3125 0  0.875 0.3125 0  0.90625 0.3125 0  0.9375 0.3125 0  0.96875 0.3125 0  1 0.3125 0  0 0.34375 0  0.03125 0.34375 0  0.0625 0.34375 0  0.09375 0.34375 0  0.125 0.34375 0  0.15625 0.34375 0  0.1875 0.34375 0  0.21875 0.34375 0  0.25 0.34375 0  0.28125 0.34375 0  0.3125 0.34375 0  0.34375 0.34375 0  0.375 0.34375 0  0.40625 0.34375 0  0.4375 0.34375 0  0.46875 0.34375 0  0.5 0.34375 0  0.53125 0.34375 0  0.5625 0.34375 0  0.59375 0.34375 0  0.625 0.34375 0  0.65625 0.34375 0  0.6875 0.34375 0  0.71875 0.34375 0  0.75 0.34375 0  0.78125 0.34375 0  0.8125 0.34375 0  0.84375 0.34375 0  0.875 0.34375 0  0.90625 0.34375 0  0.9375 0.34375 0  0.96875 0.34375 0  1 0.34375 0  0 0.375 0  0.03125 0.375 0  0.0625 0.375 0  0.09375 0.375 0  0.125 0.375 0  0.15625 0.375 0  0.1875 0.375 0  0.21875 0.375 0  0.25 0.375 0  0.28125 0.375 0  0.3125 0.375 0  0.34375 0.375 0  0.375 0.375 0  0.40625 0.375 0  0.4375 0.375 0  0.46875 0.375 0  0.5 0.375 0  0.53125 0.375 0  0.5625 0.375 0  0.59375 0.375 0  0.625 0.375 0  0.65625 0.375 0  0.6875 0.375 0  0.71875 0.375 0  0.75 0.375 0  0.78125 0.375 0  0.8125 0.375 0  0.84375 0.375 0  0.875 0.375 0  0.90625 0.375 0  0.9375 0.375 0  0.96875 0.375 0  1 0.375 0  0 0.40625 0  0.03125 0.40625 0  0.0625 0.40625 0  0.09375 0.40625 0  0.125 0.40625 0  0.15625 0.40625 0  0.1875 0.40625 0  0.21875 0.40625 0  0.25 0.40625 0  0.28125 0.40625 0  0.3125 0.40625 0  0.34375 0.40625 0  0.375 0.40625 0  0.40625 0.40625 0  0.4375 0.40625 0  0.46875 0.40625 0  0.5 0.40625 0  0.53125 0.40625 0  0.5625 0.40625 0  0.59375 0.40625 0  0.625 0.40625 0  0.65625 0.40625 0  0.6875 0.40625 0  0.71875 0.40625 0  0.75 0.40625 0  0.78125 0.40625 0  0.8125 0.40625 0  0.84375 0.40625 0  0.875 0.40625 0  0.90625 0.40625 0  0.9375 0.40625 0  0.96875 0.40625 0  1 0.40625 0  0 0.4375 0  0.03125 0.4375 0  0.0625 0.4375 0  0.09375 0.4375 0  0.125 0.4375 0  0.15625 0.4375 0  0.1875 0.4375 0  0.21875 0.4375 0  0.25 0.4375 0  0.28125 0.4375 0  0.3125 0.4375 0  0.34375 0.4375 0  0.375 0.4375 0  0.40625 0.4375 0  0.4375 0.4375 0  0.46875 0.4375 0  0.5 0.4375 0  0.53125 0.4375 0  0.5625 0.4375 0  0.59375 0.4375 0  0.625 0.4375 0  0.65625 0.4375 0  0.6875 0.4375 0  0.71875 0.4375 0  0.75 0.4375 0  0.78125 0.4375 0  0.8125 0.4375 0  0.84375 0.4375 0  0.875 0.4375 0  0.90625 0.4375 0  0.9375 0.4375 0  0.96875 0.4375 0  1 0.4375 0  0 0.46875 0  0.03125 0.46875 0  0.0625 0.46875 0  0.09375 0.46875 0  0.125 0.46875 0  0.15625 0.46875 0  0.1875 0.46875 0  0.21875 0.46875 0  0.25 0.46875 0  0.28125 0.46875 0  0.3125 0.46875 0  0.34375 0.46875 0  0.375 0.46875 0  0.40625 0.46875 0  0.4375 0.46875 0  0.46875 0.46875 0  0.5 0.46875 0  0.53125 0.46875 0  0.5625 0.46875 0  0.59375 0.46875 0  0.625 0.46875 0  0.65625 0.46875 0  0.6875 0.46875 0  0.71875 0.46875 0  0.75 0.46875 0  0.78125 0.46875 0  0.8125 0.46875 0  0.84375 0.46875 0  0.875 0.46875 0  0.90625 0.46875 0  0.9375 0.46875 0  0.96875 0.46875 0  1 0.46875 0  0 0.5 0  0.03125 0.5 0  0.0625 0.5 0  0.09375 0.5 0  0.125 0.5 0  0.15625 0.5 0  0.1875 0.5 0  0.21875 0.5 0  0.25 0.5 0  0.28125 0.5 0  0.3125 0.5 0  0.34375 0.5 0  0.375 0.5 0  0.40625 0.5 0  0.4375 0.5 0  0.46875 0.5 0  0.5 0.5 0  0.53125 0.5 0  0.5625 0.5 0  0.59375 0.5 0  0.625 0.5 0  0.65625 0.5 0  0.6875 0.5 0  0.71875 0.5 0  0.75 0.5 0  0.78125 0.5 0  0.8125 0.5 0  0.84375 0.5 0  0.875 0.5 0  0.90625 0.5 0  0.9375 0.5 0  0.96875 0.5 0  1 0.5 0  0 0.53125 0  0.03125 0.53125 0  0.0625 0.53125 0  0.09375 0.53125 0  0.125 0.53125 0  0.15625 0.53125 0  0.1875 0.53125 0  0.21875 0.53125 0  0.25 0.53125 0  0.28125 0.53125 0  0.3125 0.53125 0  0.34375 0.53125 0  0.375 0.53125 0  0.40625 0.53125 0  0.4375 0.53125 0  0.46875 0.53125 0  0.5 0.53125 0  0.53125 0.53125 0  0.5625 0.53125 0  0.59375 0.53125 0  0.625 0.53125 0  0.65625 0.53125 0  0.6875 0.53125 0  0.71875 0.53125 0  0.75 0.53125 0  0.78125 0.531
[...]
<CellData  Scalars="f_132308"> 
<DataArray  type="Float64"  Name="f_132308"  format="ascii">4.7410704390592532e-10   4.7166777639411025e-10   4.6503131771614619e-10   4.6212250113027176e-10   4.4722581729002780e-10   4.4439495236376986e-10   4.2137476575560208e-10   4.1869187074536685e-10   3.8847162432142740e-10   3.8598242190768629e-10   3.4978084495621107e-10   3.4752468775067000e-10   3.0678929535404819e-10   3.0479606763353355e-10   2.6114911853629530e-10   2.5943844156936476e-10   2.1461424220223512e-10   2.1319479475499430e-10   1.6897297634061059e-10   1.6784219749921617e-10   1.2597928955912153e-10   1.2512349369821790e-10   8.7285405137320906e-11   8.6680316440077023e-11   5.4378307097209551e-11   5.3989997485411857e-11   2.8522596324421575e-11   2.8308792670366489e-11   1.0711892743907564e-11   1.0623604020487772e-11   1.6306511342787153e-12   1.6140534117136581e-12   1.6278579754650364e-12   1.6263650538995154e-12   1.0703620142628011e-11   1.0660060379721806e-11   2.8509160834121227e-11   2.8367976601322665e-11   5.4360222884475761e-11   5.4069608173371997e-11   8.7263364389661051e-11   8.6777258583412325e-11   1.2595413608415981e-10   1.2523399697519473e-10   1.6894567338917793e-10   1.6796196209109589e-10   2.1458583584521877e-10   2.1331915992750230e-10   2.6112069655450571e-10   2.5956251995786780e-10   3.0676195198444319e-10   3.0491520963168975e-10   3.4975561086680342e-10   3.4763305964197173e-10   3.8844953101506224e-10   3.8608056122484716e-10   4.2135650248168939e-10   4.1875842581717527e-10   4.4721231532955829e-10   4.4446431903955697e-10   4.6502340559578530e-10   4.6225036434903895e-10   4.7410390639434204e-10   4.7040109911269813e-10   4.7175461905855168e-10   4.5895448055404646e-10   4.6248842565763851e-10   4.4885495898314804e-10   4.4521674527504145e-10   4.3188446728660354e-10   4.2012734317992326e-10   4.0737938398047512e-10   3.8816633694481021e-10   3.7621400362037336e-10   3.5056296898029576e-10   3.3960460565606200e-10   3.0876181433559809e-10   2.9895632599600211e-10   2.6436910985727909e-10   2.5583130392229053e-10   2.1909075849135190e-10   2.1188674957601118e-10   1.7466673399279843e-10   1.6881139128891629e-10   1.3280419532258224e-10   1.2826056371657824e-10   9.5111873626686776e-11   9.1792591745459514e-11   6.3038246070591469e-11   6.0808902751710328e-11   3.7815870021226707e-11   3.6500169373829780e-11   2.0414015779307504e-11   1.9800552013400165e-11   1.1501417718133217e-11   1.1351799269900881e-11   1.1420575076212528e-11   1.1478585787689051e-11   2.0174589915872462e-11   2.0176035198450207e-11   3.7427048017237664e-11   3.7109907616920916e-11   6.2514947239129235e-11   6.1629444450718670e-11   9.4474176645974930e-11   9.2792377034662789e-11   1.3207656677356602e-10   1.2940113763373521e-10   1.7387708829447014e-10   1.7004888203989343e-10   2.1826938831233781e-10   2.1317356018034966e-10   2.6354747567224576e-10   2.5711789212191565e-10   3.0797161788995935e-10   3.0019343938283821e-10   3.4983330622112420e-10   3.4074334066554036e-10   3.8753003006225003e-10   3.7721652563312362e-10   4.1959101592459144e-10   4.0818439466648219e-10   4.4483842655256972e-10   4.3252676633056501e-10   4.6234130683012201e-10   4.4934203746194726e-10   4.7039381224932430e-10   4.5600866985859206e-10   4.5920670467309731e-10   4.3768839716133878e-10   4.4980654237271327e-10   4.2739096153667591e-10   4.3384223043838497e-10   4.1177298876602752e-10   4.1060875802735224e-10   3.8930522809698500e-10   3.8093433422853943e-10   3.6076434494768716e-10   3.4597702339313632e-10   3.2729715600277068e-10   3.0707858551576086e-10   2.9018243243472692e-10   2.6573390294458139e-10   2.5084709374528318e-10   2.2353176949062942e-10   2.1080270773909196e-10   1.8209395381181908e-10   1.7158813478847432e-10   1.4301286133488360e-10   1.3471034738675653e-10   1.0779033625596801e-10   1.0158652051017767e-10   7.7779944337382759e-11   7.3489569442514162e-11   5.4134954999055246e-11   5.1499231917146513e-11   3.7764021237321680e-11   3.6460574096568119e-11   2.9296260327577854e-11   2.8951515008429558e-11   2.9057077114215539e-11   2.9260617409242133e-11   3.7055658917059964e-11   3.7375998531909007e-11   5.2984622588702426e-11   5.2985786862481230e-11   7.6231827250437001e-11   7.5490107363970552e-11   1.0590389888961546e-10   1.0402413471195915e-10   1.4086056235774493e-10   1.3749132817928010e-10   1.7975846228623084e-10   1.7460557198525536e-10   2.2110279383886184e-10   2.1394060616219816e-10   2.6330469339620835e-10   2.5398478163523534e-10   3.0474268875014314e-10   2.9319956502161496e-10   3.4382281147785723e-10   3.3007625865257401e-10   3.7905062950084697e-10   3.6320609682887504e-10   4.0904481113534524e-10   3.9128303280015948e-10   4.3272410306922719e-10   4.1331864851178323e-10   4.4921120317696572e-10   4.2849643200966770e-10   4.5589519403985708e-10   4.3348535621425482e-10   4.3818349598495289e-10   4.0874209584538148e-10   4.2915139342325471e-10   3.9858883723692007e-10   4.1522616269429143e-10   3.8483823017497663e-10   3.9481419992387229e-10   3.6518222442880476e-10   3.6861671415793310e-10   3.4029073479271158e-10   3.3768792161456478e-10   3.1119453279266070e-10   3.0320965157608494e-10   2.7899610097615363e-10   2.6650743313436691e-10   2.4493483022994407e-10   2.2899164883078549e-10   2.1031950640070548e-10   1.9210398599173414e-10   1.7648036899501980e-10   1.5726199527039252e-10   1.4471782257866926e-10   1.2580461716135183e-10   1.1625246996503766e-10   9.8940726280724668e-11   9.2178206103514154e-11   7.7702674520711520e-11   7.3420180442019694e-11   6.2906618038848917e-11   6.0699244004119706e-11   5.5121152692154918e-11   5.4504247533303615e-11   5.4645463191244479e-11   5.5073255296605185e-11   6.1497825659395968e-11   6.2384396507139445e-11   7.5414905425973028e-11   7.6156705950648372e-11   9.5861877010938207e-11   9.5860921491644711e-11   1.2205297755226622e-10   1.2073982367158757e-10   1.5298170333536715e-10   1.4983733527527153e-10   1.8745949011305604e-10   1.8203526368323672e-10   2.2416139507393830e-10   2.1609627817384172e-10   2.6167695695971448e-10   2.5071140159569064e-10   2.9856482311496089e-10   2.8455075036535668e-10   3.3340566889046199e-10   3.1631203005160114e-10   3.6486918245660614e-10   3.4478399008187042e-10   3.9171254388420103e-10   3.6883469526018417e-10   4.1299693404425615e-10   3.8764828912750967e-10   4.2793230714721779e-10   4.0051990246774451e-10   4.3319553280118537e-10   4.0357710596095836e-10   4.0954918154762930e-10   3.7322343852899670e-10   4.0135409845052313e-10   3.6351984674995284e-10   3.9008844548636058e-10   3.5207590198214739e-10   3.7335040502596334e-10   3.3591516358485572e-10   3.5170067571494176e-10   3.1557323121261399e-10   3.2604242757027194e-10   2.9192287055039319e-10   2.9734725286608918e-10   2.6585093303208919e-10   2.6671966126918413e-10   2.3836306841233742e-10   2.3533650917865008e-10   2.1051518403229905e-10   2.0440382385172092e-10   1.8337747731469099e-10   1.7511031559984386e-10   1.5799282584859206e-10   1.4858170315885939e-10   1.3533673622164777e-10   1.2583745340511186e-10   1.1627985895122738e-10   1.0775160392344845e-10   1.0155452964092868e-10   9.5019174231966776e-11   9.1726626080017246e-11   8.8129456588423827e-11   8.7173822033052849e-11   8.7347212812342163e-11   8.8071073578825506e-11   9.2702499727215256e-11   9.4383895771812213e-11   1.0398951423462638e-10   1.0586968801998636e-10   1.2077450238056635e-10   1.2208705723189291e-10   1.4241242863557661e-10   1.4241278059855467e-10   1.6807176426726935e-10   1.6606575562119882e-10   1.9676644343450524e-10   1.9213701814965697e-10   2.2739376291899719e-10   2.1962467860749593e-10   2.5877669872435467e-10   2.4747236447111045e-10   2.8970958807323751e-10   2.7461026545695182e-10   3.1900177430329724e-10   2.9999350478557283e-10   3.4553715728048393e-10   3.2265660202516319e-10   3.6825724532936766e-10   3.4168718454470693e-10   3.8640000866231145e-10   3.5647641723119206e-10   3.9928335625042633e-10   3.6646464008843355e-10   4.0303294995051373e-10   3.6736209213465839e-10   3.7439947327280077e-10   3.3249845987634860e-10   3.6744391447960971e-10   3.2353469011239629e-10   3.5934090648546187e-10   3.1475323012038103e-10   3.4698694099619380e-10   3.0263290160446570e-10   3.3077479186332346e-10   2.8755456616526295e-10   3.1141540147431030e-10   2.7020264434407235e-10   2.8963207907588899e-10   2.5121736426886740e-10   2.6626524870982658e-10   2.3133324166030498e-10   2.4221252577184074e-10   2.1131368382643600e-10   2.1839825434802790e-10   1.9192809829921853e-10   1.9573759301404027e-10   1.7392145237737594e-10   1.7510136660272171e-10   1.5798572148940983e-10   1.5728260289829019e-10   1.4473329837191656e-10   1.4296605710954406e-10   1.3467345790918193e-10   1.3270189735455271e-10   1.2819278664641455e-10   1.2688456214250191e-10   1.2554032663766206e-10   1.2573760243412235e-10   1.2681800505810710e-10   1.2930509082176117e-10   1.3197671732825210e-10   1.3744992798476373e-10   1.4081821430338348e-10   1.4985911148500928e-10   1.5300272098320767e-10   1.6605576458799695e-10   1.6806199410250178e-10   1.8541746228280583e-10   1.8541731627183610e-10   2.0720015155656613e-10   2.0440173635220054e-10   2.3056675020973938e-10   2.2428570472754617e-10   2.5461925464564253e-10   2.4430505036442324e-10   2.7843371275317050e-10   2.6369079844276492e-10   3.0109290698899715e-10   2.8169592894359739e-10   3.2173633525202961e-10   2.9763887050785369e-10   3.3952814136664155e-10   3.1086318713458535e-10   3.5391016225247362e-10   3.2099297788737801e-10   3.6433479888736055e-10   3.2763857573519847e-10   3.6649413137595367e-10   3.2626244919000714e-10   3.3408624495555936e-10   2.8813252504291475e-10   3.2872747683249460e-10   2.8016959632664181e-10   3.2417760140127681e-10   2.7430359791909367e-10   3.1675480618368648e-10   2.6661378044378939e-10   3.0666351348561914e-10   2.5731368645819419e-10   2.9439284153041580e-10   2.4687535444393085e-10   2.8038916938030661e-10   2.3566978463200838e-10   2.6519513801696268e-10   2.2413336999517893e-10   2.4939403091962856e-10   2.1270852896401243e-10   2.3359312350585433e-10   2.0183442255686688e-10   2.1839962625044425e-10   1.9192892028524109e-10   2.0439740663211690e-10   1.8337267647320317e-10   1.9212455291926323e-10   1.7649449551796834e-10   1.8205269522687930e-10   1.7155869458925251e-10   1.7456888147489482e-10   1.6875494698270950e-10   1.6996070351957825e-10   1.6819099311425160e-10   1.6840524529934907e-10   1.6988850026832104e-10   1.6996227772011771e-10   1.7378223004296873e-10   1.7457196182324901e-10   1.7972254552265923e-10   1.8205714848084800e-10   1.8748116180978927e-10   1.9213018640131231e-10   1.9675991905651444e-10   2.0440397623882181e-10   2.0720224032489454e-10   2.1840684736932867e-10   2.1840683516486910e-10   2.3360068870418897e-10   2.2994312522872244e-10   2.4940156787376460e-10   2.4136773418683132e-10   2.6520263587043417e-10   2.5224196750366428e-10   2.8039457092297101e-10   2.6214590598059431e-10   2.9440421998399521e-10   2.7070936451749599e-10   3.0664827321752064e-10   2.7755860738654962e-10   3.1679181237347286e-10   2.8256788607197786e-10   3.2444062822650924e-10   2.8553639989088797e-10   3.2501744814409844e-10   2.8184941596993513e-10   2.9015903972628544e-10   2.4183079569626579e-10   2.8669221260144786e-10   2.3509103027971567e-10   2.8594840473256719e-10   2.3228147093316280e-10   2.8381247338951113e-10   2.2924200015710625e-10   2.8028879021659767e-10   2.2601235183226674e-10   2.7562337858354583e-10   2.2283605535318121e-10   2.6996698938602181e-10   2.1980290203644629e-10   2.6354231138135518e-10   2.1703582539637535e-10   2.5659543576129729e-10   2.1464011372902656e-10   2.4939341228151229e-10   2.1270796756757474e-10   2.4221299772504058e-10   2.1131361621864616e-10   2.3533012236803836e-10   2.1051063662330144e-10   2.2900928326649397e-10   2.1032988011694444e-10   2.2349337880790745e-10   2.1077828614893162e-10   2.1899437486135968e-10   2.1183861649318141e-10   2.1568515916655091e-10   2.1347011759153921e-10   2.1369289748855686e-10   2.1561008681942202e-10   2.1309414681855952e-10   2.1817628217659094e-10   2.1391191344429349e-10   2.2107008286571482e-10   2.1611476892239629e-10   2.2418027927103215e-10   2.1961805808060923e-10   2.2738734681142922e-10   2.2428715205735347e-10   2.3056803892545859e-10   2.2994262274699575e-10   2.3360012387908418e-10   2.3636714241299861e-10   2.3636708587847224e-10   2.4331377778134221e-10   2.3876254938040258e-10   2.5051593279218274e-10   2.4069478683390671e-10   2.5769474790882830e-10   2.4208758360075480e-10   2.6458506891138965e-10   2.4289757920227155e-10   2.7087627345623779e-10   2.4304956956174746e-10   2.7646747104445767e-10   2.4267548085658188e-10   2.8113120871668067e-10   2.4177490847469078e-10   2.8018670412964712e-10   2.3583126802046040e-10   2.4430616023681934e-10   1.9537276156145515e-10   2.4295348215165576e-10   1.9003132179251564e-10   2.4612249239677785e-10   1.9030172519898009e-10   2.4942620019521929e-10   1.9195372746657612e-10   2.5266490053255955e-10   1.9485348517317307e-10   2.5582934038010117e-10   1.9900874930499588e-10   2.5876734458537023e-10   2.0422694055984237e-10   2.6137188194904209e-10   2.1031417293786335e-10   2.6354193003535790e-10   2.1703538813730439e-10   2.6519420556596944e-10   2.2413244341581121e-10   2.6626519510924931e-10   2.3133257818109428e-10   2.6671373311043554e-10   2.3835908881520359e-10   2.6652257527303766e-10   2.4494194391091474e-10   2.6569906040648335e-10   2.5082816152335869e-10   2.6427482905751979e-10   2.5579153178126381e-10   2.6230460760430656e-10   2.5964130981665427e-10   2.5986410526231604e-10   2.6222954606976758e-10   2.5704710470818793e-10   2.6345677192581918e-10   2.5396185815119165e-10   2.6327582227314303e-10   2.5072692733566479e-10   2.6169364804162677e-10   2.4746662747662154e-10   2.5877104919183343e-10   2.4430624967756438e-10   2.5462033794396727e-10   2.4136724679141440e-10   2.4940102320321539e-10   2.3876256985325576e-10   2.4331368410434717e-10   2.3659227373404935e-10   2.3659221343055807e-10   2.3494010181377511e-10   2.2949521703661797e-10   2.3386753582413785e-10   2.2229359426356570e-10   2.3342624476990334e-10   2.1527370229019972e-10   2.3358796735719875e-10   2.0866324065466986e-10   2.3448762429940062e-10   2.0284945304768158e-10   2.3607146224571108e-10   1.9803616352907171e-10   2.3372688374843743e-10   1.8997611489088217e-10   1.9828984741022649e-10   1.5054388975991356e-10   1.9919212438250240e-10   1.4672208575852844e-10   2.0623033703070789e-10   1.4997761672736235e-10   2.1491740217598868e-10   1.5618192247759248e-10   2.2485334153764278e-10   1.6503449452473778e-10   2.3577125844692190e-10   1.7630908673840073e-10   2.4722043106696456e-10   1.8954041975712644e-10   2.5876700388418394e-10   2.0422660553502810e-10   2.6996624481805508e-10   2.1980211671260158e-10   2.8038789839719157e-10   2.3566855242497321e-10   2.8963144587349077e-10   2.5121614793573583e-10   2.9734165568544172e-10   2.6584741166749883e-10   3.0322222201375867e-10   2.7900006600377716e-10   3.0704715123848646e-10   2.9016865564785499e-10   3.0866944732754561e-10   2.9892397249369554e-10   3.0802676075092155e-10   3.0492954962337196e-10   3.0514378461382437e-10   3.0795459158450797e-10   3.0013130576905980e-10   3.0788284370813903e-10   2.9318194740768241e-10   3.0471705971812290e-10   2.8456276671853561e-10   2.9857889590534500e-10   2.7460499220792534e-10   2.8970423604215435e-10   2.6369129457985778e-10   2.7843412627900890e-10   2.5224108163829567e-10   2.6520166946557796e-10   2.4069438395490177e-10   2.5051538417044956e-10   2.2949489636282885e-10   2.3493962005936270e-10   2.1907332170757709e-10   2.1907321651507644e-10   2.0982827934223456e-10   2.0352425330699454e-10   2.0212490683867152e-10   1.8889902377702607e-10   1.9621612181895544e-10   1.7572085936155080e-10   1.9246538226047772e-10   1.6462014929657909e-10   1.9099288914401154e-10   1.5600093536846653e-10   1.8742289186056563e-10   1.4604611526081076e-10   1.5387859315552614e-10   1.0906702231177363e-10   1.5708985857503208e-10   1.0682766936544700e-10   1.6780496907032353e-10   1.1285877967803555e-10   1.8161222543673853e-10   1.2330127462825523e-10   1.9792288869739115e-10   1.3770130451536529e-10   2.1621995595997279e-10   1.5560939960528059e-10   2.3577000604635884e-10   1.7630773238351313e-10   2.5582780757151539e-10   1.9900706963846153e-10   2.7562153263472531e-10   2.2283399031716174e-10   2.9439065065657937e-10   2.4687299366397158e-10   3.1141385294475404e-10   2.7020024717885899e-10   3.2603694073923344e-10   2.9191929176255345e-10   3.3769795057002443e-10   3.1119547062003350e-10   3.4594875012108435e-10   3.2728800520591516e-10   3.5047226017122749e-10   3.3957846336341888e-10   3.5109463964562204e-10   3.4759452507062647e-10   3.4779196627391363e-10   3.5102813343240277e-10   3.4069115593385948e-10   3.4974733308663919e-10   3.3006508539344391e-10   3.4380134116315270e-10   3.1632210586282209e-10   3.3341865588999575e-10   2.9999035045084892e-10   3.1899827562727655e-10   2.8169743815380173e-10   3.0109436541683750e-10   2.6214635551221667e-10   2.8039496125861385e-10   2.4208844394915398e-10   2.5769553170076993e-10   2.2229448418299168e-10   2.3386837255488093e-10   2.0352542502014165e-10   2.0982938185223528e-10   1.8650086363519377e-10   1.8650092861354095e-10   1.7188400498053291e-10   1.6478716611518481e-10   1.6019695801099381e-10   1.4548842531524018e-10   1.5201566163244193e-10   1.2945672722974873e-10   1.4762784866654044e-10   1.1728462466861631e-10   1.4305417596537806e-10   1.0572943158113356e-10   1.1277919042956856e-10   7.2536172504536129e-11   1.1826464830613061e-10   7.1881190692039945e-11   1.3232305452452831e-10   8.0371672432349482e-11   1.5079056771357260e-10   9.4575369462115054e-11   1.7290846250290850e-10   1.1390431337832100e-10   1.9792677773865419e-10   1.3770516396041213e-10   2.2485610180996541e-10   1.6503740213413516e-10   2.5266724227247228e-10   1.9485614797835461e-10   2.8029046020578201e-10   2.2601449350726180e-10   3.0666433912037547e-10   2.5731518274734183e-10   3.3077532337620545e-10   2.8755532177093199e-10   3.5169683523794367e-10   3.1557279359127028e-10   3.6862486675747231e-10   3.4029089672243051e-10   3.8090887748804568e-10   3.6075972297277328e-10   3.8807679474370797e-10   3.7619266223261805e-10   3.8985315493003582e-10   3.8599663118467111e-10   3.8616968946391199e-10   3.8979486513704415e-10   3.7716794829768595e-10   3.8744139681206938e-10   3.6319386026610224e-10   3.7902666576444787e-10   3.4478443928603917e-10   3.6487404283318889e-10   3.2264714736528467e-10   3.4552740327311263e-10   2.9763270713059675e-10   3.2173022582491879e-10   2.7070240969623900e-10   2.9439702174060767e-10   2.4289117492058677e-10   2.6457819255174950e-10   2.1526774531566025e-10   2.3341963502520423e-10   1.8889391064662523e-10   2.0211894630656717e-10   1.6478175076725930e-10   1.7187781529817151e-10   1.4386568201503041e-10   1.4386473229974841e-10   1.2691467196267245e-10   1.1912775044088692e-10   1.1469291993516743e-10   9.8710492262488100e-11   1.0764282776800384e-10   8.3375071016931811e-11   1.0232575136181299e-10   7.0575380450496364e-11   7.6571146494173572e-11   4.2355268930465426e-11   8.4208522460480874e-11   4.3225621613567851e-11   1.0114814550504766e-10   5.3764758850130452e-11   1.2363688846096916e-10   7.1108128952185975e-11   1.5077135219931826e-10   9.4558026304489195e-11   1.8159471837897066e-10   1.2328442880372385e-10   2.1489813089908975e-10   1.5616253971028940e-10   2.4940676362273780e-10   1.9193335530152843e-10   2.8379359966116265e-10   2.2922139752254890e-10   3.1673728852049050e-10   2.6659382761917392e-10   3.4697180160990238e-10   3.0261442062763104e-10   3.7333523795995818e-10   3.3589892037023239e-10   3.9481446005027988e-10   3.6516821688357856e-10   4.1058402838358171e-10   3.8929750274481969e-10   4.200379