<?xml version="1.0"?>
<VTKFile type="UnstructuredGrid"  version="0.1"  >
<UnstructuredGrid>
<Piece  NumberOfPoints="25" NumberOfCells="32">
<Points>
<DataArray  type="Float64"  NumberOfComponents="3"  format="ascii">0 0 0  0.25 0 0  0.5 0 0  0.75 0 0  1 0 0  0 0.25 0  0.25 0.25 0  0.5 0.25 0  0.75 0.25 0  1 0.25 0  0 0.5 0  0.25 0.5 0  0.5 0.5 0  0.75 0.5 0  1 0.5 0  0 0.75 0  0.25 0.75 0  0.5 0.75 0  0.75 0.75 0  1 0.75 0  0 1 0  0.25 1 0  0.5 1 0  0.75 1 0  1 1 0  </DataArray>
</Points>
<Cells>
<DataArray  type="UInt32"  Name="connectivity"  format="ascii">0 1 6  0 5 6  1 2 7  1 6 7  2 3 8  2 7 8  3 4 9  3 8 9  5 6 11  5 10 11  6 7 12  6 11 12  7 8 13  7 12 13  8 9 14  8 13 14  10 11 16  10 15 16  11 12 17  11 16 17  12 13 18  12 17 18  13 14 19  13 18 19  15 16 21  15 20 21  16 17 22  16 21 22  17 18 23  17 22 23  18 19 24  18 23 24  </DataArray>
<DataArray  type="UInt32"  Name="offsets"  format="ascii">3 6 9 12 15 18 21 24 27 30 33 36 39 42 45 48 51 54 57 60 63 66 69 72 75 78 81 84 87 90 93 96 </DataArray>
<DataArray  type="UInt8"  Name="types"  format="ascii">5 5 5 5 5 5 5 5 5 5 5 5 5 5 5 5 5 5 5 5 5 5 5 5 5 5 5 5 5 5 5 5 </DataArray>
</Cells>
<CellData  Scalars="f_44020"> 
<DataArray  type="Float64"  Name="f_44020"  format="ascii">2.8654552622693126e-02   2.5970510431076538e-02   4.9506129873597782e-03   1.2949852729536674e-02   2.5489396931327683e-02   2.2710404989723883e-02   5.0061898903548840e-02   3.8044016682240167e-02   1.0203262457762282e-02   2.6979939254379351e-03   2.8695974512853328e-02   2.7087483474914971e-02   3.3129107032094735e-02   3.7418866308067830e-02   1.3850239754405304e-02   1.4007160716931630e-02   2.2710559165278858e-02   3.1128792203418004e-02   3.5385206855197970e-02   3.2628992094893873e-02   2.2426539459115630e-02   2.0248102522068236e-02   9.2403231441630408e-03   1.9824864962591292e-02   4.4057890453200826e-02   5.5101776513475455e-02   1.2676254999469592e-02   1.8145020334082829e-02   1.6285726058743750e-02   4.9213812719830618e-03   4.7575350640948567e-02   4.4412124940110535e-02   </DataArray> 
</CellData> 
</Piece>
</UnstructuredGrid>
</VTKFile>