<?xml version="1.0"?>
<VTKFile type="UnstructuredGrid"  version="0.1"  >
<UnstructuredGrid>
<Piece  NumberOfPoints="81" NumberOfCells="128">
<Points>
<DataArray  type="Float64"  NumberOfComponents="3"  format="ascii">0 0 0  0.125 0 0  0.25 0 0  0.375 0 0  0.5 0 0  0.625 0 0  0.75 0 0  0.875 0 0  1 0 0  0 0.125 0  0.125 0.125 0  0.25 0.125 0  0.375 0.125 0  0.5 0.125 0  0.625 0.125 0  0.75 0.125 0  0.875 0.125 0  1 0.125 0  0 0.25 0  0.125 0.25 0  0.25 0.25 0  0.375 0.25 0  0.5 0.25 0  0.625 0.25 0  0.75 0.25 0  0.875 0.25 0  1 0.25 0  0 0.375 0  0.125 0.375 0  0.25 0.375 0  0.375 0.375 0  0.5 0.375 0  0.625 0.375 0  0.75 0.375 0  0.875 0.375 0  1 0.375 0  0 0.5 0  0.125 0.5 0  0.25 0.5 0  0.375 0.5 0  0.5 0.5 0  0.625 0.5 0  0.75 0.5 0  0.875 0.5 0  1 0.5 0  0 0.625 0  0.125 0.625 0  0.25 0.625 0  0.375 0.625 0  0.5 0.625 0  0.625 0.625 0  0.75 0.625 0  0.875 0.625 0  1 0.625 0  0 0.75 0  0.125 0.75 0  0.25 0.75 0  0.375 0.75 0  0.5 0.75 0  0.625 0.75 0  0.75 0.75 0  0.875 0.75 0  1 0.75 0  0 0.875 0  0.125 0.875 0  0.25 0.875 0  0.375 0.875 0  0.5 0.875 0  0.625 0.875 0  0.75 0.875 0  0.875 0.875 0  1 0.875 0  0 1 0  0.125 1 0  0.25 1 0  0.375 1 0  0.5 1 0  0.625 1 0  0.75 1 0  0.875 1 0  1 1 0  </DataArray>
</Points>
<Cells>
<DataArray  type="UInt32"  Name="connectivity"  format="ascii">0 1 10  0 9 10  1 2 11  1 10 11  2 3 12  2 11 12  3 4 13  3 12 13  4 5 14  4 13 14  5 6 15  5 14 15  6 7 16  6 15 16  7 8 17  7 16 17  9 10 19  9 18 19  10 11 20  10 19 20  11 12 21  11 20 21  12 13 22  12 21 22  13 14 23  13 22 23  14 15 24  14 23 24  15 16 25  15 24 25  16 17 26  16 25 26  18 19 28  18 27 28  19 20 29  19 28 29  20 21 30  20 29 30  21 22 31  21 30 31  22 23 32  22 31 32  23 24 33  23 32 33  24 25 34  24 33 34  25 26 35  25 34 35  27 28 37  27 36 37  28 29 38  28 37 38  29 30 39  29 38 39  30 31 40  30 39 40  31 32 41  31 40 41  32 33 42  32 41 42  33 34 43  33 42 43  34 35 44  34 43 44  36 37 46  36 45 46  37 38 47  37 46 47  38 39 48  38 47 48  39 40 49  39 48 49  40 41 50  40 49 50  41 42 51  41 50 51  42 43 52  42 51 52  43 44 53  43 52 53  45 46 55  45 54 55  46 47 56  46 55 56  47 48 57  47 56 57  48 49 58  48 57 58  49 50 59  49 58 59  50 51 60  50 59 60  51 52 61  51 60 61  52 53 62  52 61 62  54 55 64  54 63 64  55 56 65  55 64 65  56 57 66  56 65 66  57 58 67  57 66 67  58 59 68  58 67 68  59 60 69  59 68 69  60 61 70  60 69 70  61 62 71  61 70 71  63 64 73  63 72 73  64 65 74  64 73 74  65 66 75  65 74 75  66 67 76  66 75 76  67 68 77  67 76 77  68 69 78  68 77 78  69 70 79  69 78 79  70 71 80  70 79 80  </DataArray>
<DataArray  type="UInt32"  Name="offsets"  format="ascii">3 6 9 12 15 18 21 24 27 30 33 36 39 42 45 48 51 54 57 60 63 66 69 72 75 78 81 84 87 90 93 96 99 102 105 108 111 114 117 120 123 126 129 132 135 138 141 144 147 150 153 156 159 162 165 168 171 174 177 180 183 186 189 192 195 198 201 204 207 210 213 216 219 222 225 228 231 234 237 240 243 246 249 252 255 258 261 264 267 270 273 276 279 282 285 288 291 294 297 300 303 306 309 312 315 318 321 324 327 330 333 336 339 342 345 348 351 354 357 360 363 366 369 372 375 378 381 384 </DataArray>
<DataArray  type="UInt8"  Name="types"  format="ascii">5 5 5 5 5 5 5 5 5 5 5 5 5 5 5 5 5 5 5 5 5 5 5 5 5 5 5 5 5 5 5 5 5 5 5 5 5 5 5 5 5 5 5 5 5 5 5 5 5 5 5 5 5 5 5 5 5 5 5 5 5 5 5 5 5 5 5 5 5 5 5 5 5 5 5 5 5 5 5 5 5 5 5 5 5 5 5 5 5 5 5 5 5 5 5 5 5 5 5 5 5 5 5 5 5 5 5 5 5 5 5 5 5 5 5 5 5 5 5 5 5 5 5 5 5 5 5 5 </DataArray>
</Cells>
<CellData  Scalars="f_44157"> 
<DataArray  type="Float64"  Name="f_44157"  format="ascii">1.7765122668137624e-09   1.7116056958220316e-09   1.0329709973753374e-09   1.1905888212382979e-09   3.3516993530076836e-10   5.3739168248024190e-10   9.3442561299660679e-11   2.1527369804317045e-10   4.4944135612523988e-10   4.1192764659678552e-10   1.1960795910546186e-09   1.0124846070069835e-09   1.8930904247158612e-09   1.6657058824843132e-09   2.1235295336996614e-09   1.9903904698430561e-09   1.1089888178796708e-09   8.5934074639852818e-10   6.4787505210241582e-10   5.8935919130758140e-10   4.0053136471005122e-10   4.6897234471508890e-10   5.1508819421587305e-10   6.2327191637437900e-10   9.2450233733962455e-10   9.5994601934225475e-10   1.3889390744317818e-09   1.2818545691511342e-09   1.6318586380011939e-09   1.4006110236180989e-09   1.4985798223005010e-09   1.2479835445849928e-09   3.7801196906008217e-10   1.7854673562524037e-10   4.0765439296376435e-10   2.7541419560372574e-10   6.9933518309686725e-10   6.6014202215687878e-10   1.0866587568511413e-09   1.1348097023473256e-09   1.3426052454377516e-09   1.4210119250477718e-09   1.3172175291424926e-09   1.3510838466621040e-09   1.0230260915834453e-09   9.6615011186510316e-10   6.1675353197179476e-10   4.9061463564356616e-10   1.0602301214951387e-10   7.1699813764425751e-11   5.1773010040957823e-10   4.3527879748699821e-10   1.0879586802366946e-09   1.0030947885473777e-09   1.4857786918576501e-09   1.4543548016706785e-09   1.4779115011522591e-09   1.5261082915633633e-09   1.0690175365122028e-09   1.1763540878015574e-09   4.9853550570166169e-10   6.1011165971662284e-10   8.6829019391719478e-11   1.5499677202709139e-10   4.4968968429352253e-10   6.0102933180998756e-10   9.1109066531358796e-10   9.7525419828836170e-10   1.3377331365166360e-09   1.2967055401541312e-09   1.4792648631029735e-09   1.3943877278026483e-09   1.2525906379789437e-09   1.2134170840830346e-09   7.9073193731672574e-10   8.5989180729619929e-10   3.6588682367476829e-10   5.4112445073892288e-10   2.1620712366876226e-10   4.3795543163950632e-10   1.2078706585613480e-09   1.4592557325144510e-09   1.3573485906338699e-09   1.5792580197091046e-09   1.3023338049416510e-09   1.3691336730632049e-09   1.0709602306942225e-09   9.9004709116666957e-10   7.9868655136921263e-10   6.6632337677819747e-10   6.4551385816579514e-10   5.8780137825008072e-10   7.0298945438475818e-10   8.0076116783935345e-10   9.2969241104645110e-10   1.1747864623929636e-09   1.9378317107963463e-09   2.1345187827435345e-09   1.5956238403525817e-09   1.8878297943431364e-09   1.0026583646414544e-09   1.1736599709630344e-09   5.0006580788760019e-10   4.7702188399465274e-10   3.8233093729107145e-10   2.0619455012519233e-10   7.1906621430295700e-10   5.2007883926745601e-10   1.3126686890430833e-09   1.2349171660816679e-09   1.8094894455793245e-09   1.9298878556751799e-09   2.2092823832601011e-09   2.2421846236272388e-09   1.4864349025275617e-09   1.7226669982320984e-09   6.1411702837305469e-10   8.2131356804677347e-10   9.8360816099074979e-11   1.4572677453974735e-10   2.4173117435449122e-10   9.1377801306628721e-11   9.6082505227126710e-10   6.9109522689554305e-10   1.8339292411976527e-09   1.5936710931075557e-09   2.3429731115270488e-09   2.2709761576876420e-09   </DataArray> 
</CellData> 
</Piece>
</UnstructuredGrid>
</VTKFile>