<?xml version="1.0"?>
<VTKFile type="UnstructuredGrid"  version="0.1"  >
<UnstructuredGrid>
<Piece  NumberOfPoints="4225" NumberOfCells="8192">
<Points>
<DataArray  type="Float64"  NumberOfComponents="3"  format="ascii">0 0 0  0.015625 0 0  0.03125 0 0  0.046875 0 0  0.0625 0 0  0.078125 0 0  0.09375 0 0  0.109375 0 0  0.125 0 0  0.140625 0 0  0.15625 0 0  0.171875 0 0  0.1875 0 0  0.203125 0 0  0.21875 0 0  0.234375 0 0  0.25 0 0  0.265625 0 0  0.28125 0 0  0.296875 0 0  0.3125 0 0  0.328125 0 0  0.34375 0 0  0.359375 0 0  0.375 0 0  0.390625 0 0  0.40625 0 0  0.421875 0 0  0.4375 0 0  0.453125 0 0  0.46875 0 0  0.484375 0 0  0.5 0 0  0.515625 0 0  0.53125 0 0  0.546875 0 0  0.5625 0 0  0.578125 0 0  0.59375 0 0  0.609375 0 0  0.625 0 0  0.640625 0 0  0.65625 0 0  0.671875 0 0  0.6875 0 0  0.703125 0 0  0.71875 0 0  0.734375 0 0  0.75 0 0  0.765625 0 0  0.78125 0 0  0.796875 0 0  0.8125 0 0  0.828125 0 0  0.84375 0 0  0.859375 0 0  0.875 0 0  0.890625 0 0  0.90625 0 0  0.921875 0 0  0.9375 0 0  0.953125 0 0  0.96875 0 0  0.984375 0 0  1 0 0  0 0.015625 0  0.015625 0.015625 0  0.03125 0.015625 0  0.046875 0.015625 0  0.0625 0.015625 0  0.078125 0.015625 0  0.09375 0.015625 0  0.109375 0.015625 0  0.125 0.015625 0  0.140625 0.015625 0  0.15625 0.015625 0  0.171875 0.015625 0  0.1875 0.015625 0  0.203125 0.015625 0  0.21875 0.015625 0  0.234375 0.015625 0  0.25 0.015625 0  0.265625 0.015625 0  0.28125 0.015625 0  0.296875 0.015625 0  0.3125 0.015625 0  0.328125 0.015625 0  0.34375 0.015625 0  0.359375 0.015625 0  0.375 0.015625 0  0.390625 0.015625 0  0.40625 0.015625 0  0.421875 0.015625 0  0.4375 0.015625 0  0.453125 0.015625 0  0.46875 0.015625 0  0.484375 0.015625 0  0.5 0.015625 0  0.515625 0.015625 0  0.53125 0.015625 0  0.546875 0.015625 0  0.5625 0.015625 0  0.578125 0.015625 0  0.59375 0.015625 0  0.609375 0.015625 0  0.625 0.015625 0  0.640625 0.015625 0  0.65625 0.015625 0  0.671875 0.015625 0  0.6875 0.015625 0  0.703125 0.015625 0  0.71875 0.015625 0  0.734375 0.015625 0  0.75 0.015625 0  0.765625 0.015625 0  0.78125 0.015625 0  0.796875 0.015625 0  0.8125 0.015625 0  0.828125 0.015625 0  0.84375 0.015625 0  0.859375 0.015625 0  0.875 0.015625 0  0.890625 0.015625 0  0.90625 0.015625 0  0.921875 0.015625 0  0.9375 0.015625 0  0.953125 0.015625 0  0.96875 0.015625 0  0.984375 0.015625 0  1 0.015625 0  0 0.03125 0  0.015625 0.03125 0  0.03125 0.03125 0  0.046875 0.03125 0  0.0625 0.03125 0  0.078125 0.03125 0  0.09375 0.03125 0  0.109375 0.03125 0  0.125 0.03125 0  0.140625 0.03125 0  0.15625 0.03125 0  0.171875 0.03125 0  0.1875 0.03125 0  0.203125 0.03125 0  0.21875 0.03125 0  0.234375 0.03125 0  0.25 0.03125 0  0.265625 0.03125 0  0.28125 0.03125 0  0.296875 0.03125 0  0.3125 0.03125 0  0.328125 0.03125 0  0.34375 0.03125 0  0.359375 0.03125 0  0.375 0.03125 0  0.390625 0.03125 0  0.40625 0.03125 0  0.421875 0.03125 0  0.4375 0.03125 0  0.453125 0.03125 0  0.46875 0.03125 0  0.484375 0.03125 0  0.5 0.03125 0  0.515625 0.03125 0  0.53125 0.03125 0  0.546875 0.03125 0  0.5625 0.03125 0  0.578125 0.03125 0  0.59375 0.03125 0  0.609375 0.03125 0  0.625 0.03125 0  0.640625 0.03125 0  0.65625 0.03125 0  0.671875 0.03125 0  0.6875 0.03125 0  0.703125 0.03125 0  0.71875 0.03125 0  0.734375 0.03125 0  0.75 0.03125 0  0.765625 0.03125 0  0.78125 0.03125 0  0.796875 0.03125 0  0.8125 0.03125 0  0.828125 0.03125 0  0.84375 0.03125 0  0.859375 0.03125 0  0.875 0.03125 0  0.890625 0.03125 0  0.90625 0.03125 0  0.921875 0.03125 0  0.9375 0.03125 0  0.953125 0.03125 0  0.96875 0.03125 0  0.984375 0.03125 0  1 0.03125 0  0 0.046875 0  0.015625 0.046875 0  0.03125 0.046875 0  0.046875 0.046875 0  0.0625 0.046875 0  0.078125 0.046875 0  0.09375 0.046875 0  0.109375 0.046875 0  0.125 0.046875 0  0.140625 0.046875 0  0.15625 0.046875 0  0.171875 0.046875 0  0.1875 0.046875 0  0.203125 0.046875 0  0.21875 0.046875 0  0.234375 0.046875 0  0.25 0.046875 0  0.265625 0.046875 0  0.28125 0.046875 0  0.296875 0.046875 0  0.3125 0.046875 0  0.328125 0.046875 0  0.34375 0.046875 0  0.359375 0.046875 0  0.375 0.046875 0  0.390625 0.046875 0  0.40625 0.046875 0  0.421875 0.046875 0  0.4375 0.046875 0  0.453125 0.046875 0  0.46875 0.046875 0  0.484375 0.046875 0  0.5 0.046875 0  0.515625 0.046875 0  0.53125 0.046875 0  0.546875 0.046875 0  0.5625 0.046875 0  0.578125 0.046875 0  0.59375 0.046875 0  0.609375 0.046875 0  0.625 0.046875 0  0.640625 0.046875 0  0.65625 0.046875 0  0.671875 0.046875 0  0.6875 0.046875 0  0.703125 0.046875 0  0.71875 0.046875 0  0.734375 0.046875 0  0.75 0.046875 0  0.765625 0.046875 0  0.78125 0.046875 0  0.796875 0.046875 0  0.8125 0.046875 0  0.828125 0.046875 0  0.84375 0.046875 0  0.859375 0.046875 0  0.875 0.046875 0  0.890625 0.046875 0  0.90625 0.046875 0  0.921875 0.046875 0  0.9375 0.046875 0  0.953125 0.046875 0  0.96875 0.046875 0  0.984375 0.046875 0  1 0.046875 0  0 0.0625 0  0.015625 0.0625 0  0.03125 0.0625 0  0.046875 0.0625 0  0.0625 0.0625 0  0.078125 0.0625 0  0.09375 0.0625 0  0.109375 0.0625 0  0.125 0.0625 0  0.140625 0.0625 0  0.15625 0.0625 0  0.171875 0.0625 0  0.1875 0.0625 0  0.203125 0.0625 0  0.21875 0.0625 0  0.234375 0.0625 0  0.25 0.0625 0  0.265625 0.0625 0  0.28125 0.0625 0  0.296875 0.0625 0  0.3125 0.0625 0  0.328125 0.0625 0  0.34375 0.0625 0  0.359375 0.0625 0  0.375 0.0625 0  0.390625 0.0625 0  0.40625 0.0625 0  0.421875 0.0625 0  0.4375 0.0625 0  0.453125 0.0625 0  0.46875 0.0625 0  0.484375 0.0625 0  0.5 0.0625 0  0.515625 0.0625 0  0.53125 0.0625 0  0.546875 0.0625 0  0.5625 0.0625 0  0.578125 0.0625 0  0.59375 0.0625 0  0.609375 0.0625 0  0.625 0.0625 0  0.640625 0.0625 0  0.65625 0.0625 0  0.671875 0.0625 0  0.6875 0.0625 0  0.703125 0.0625 0  0.71875 0.0625 0  0.734375 0.0625 0  0.75 0.0625 0  0.765625 0.0625 0  0.78125 0.0625 0  0.796875 0.0625 0  0.8125 0.0625 0  0.828125 0.0625 0  0.84375 0.0625 0  0.859375 0.0625 0  0.875 0.0625 0  0.890625 0.0625 0  0.90625 0.0625 0  0.921875 0.0625 0  0.9375 0.0625 0  0.953125 0.0625 0  0.96875 0.0625 0  0.984375 0.0625 0  1 0.0625 0  0 0.078125 0  0.015625 0.078125 0  0.03125 0.078125 0  0.046875 0.078125 0  0.0625 0.078125 0  0.078125 0.078125 0  0.09375 0.078125 0  0.109375 0.078125 0  0.125 0.078125 0  0.140625 0.078125 0  0.15625 0.078125 0  0.171875 0.078125 0  0.1875 0.078125 0  0.203125 0.078125 0  0.21875 0.078125 0  0.234375 0.078125 0  0.25 0.078125 0  0.265625 0.078125 0  0.28125 0.078125 0  0.296875 0.078125 0  0.3125 0.078125 0  0.328125 0.078125 0  0.34375 0.078125 0  0.359375 0.078125 0  0.375 0.078125 0  0.390625 0.078125 0  0.40625 0.078125 0  0.421875 0.078125 0  0.4375 0.078125 0  0.453125 0.078125 0  0.46875 0.078125 0  0.484375 0.078125 0  0.5 0.078125 0  0.515625 0.078125 0  0.53125 0.078125 0  0.546875 0.078125 0  0.5625 0.078125 0  0.578125 0.078125 0  0.59375 0.078125 0  0.609375 0.078125 0  0.625 0.078125 0  0.640625 0.078125 0  0.65625 0.078125 0  0.671875 0.078125 0  0.6875 0.078125 0  0.703125 0.078125 0  0.71875 0.078125 0  0.734375 0.078125 0  0.75 0.078125 0  0.765625 0.078125 0  0.78125 0.078125 0  0.796875 0.078125 0  0.8125 0.078125 0  0.828125 0.078125 0  0.84375 0.078125 0  0.859375 0.078125 0  0.875 0.078125 0  0.890625 0.078125 0  0.90625 0.078125 0  0.921875 0.078125 0  0.9375 0.078125 0  0.953125 0.078125 0  0.96875 0.078125 0  0.984375 0.078125 0  1 0.078125 0  0 0.09375 0  0.015625 0.09375 0  0.03125 0.09375 0  0.046875 0.09375 0  0.0625 0.09375 0  0.078125 0.09375 0  0.09375 0.09375 0  0.109375 0.09375 0  0.125 0.09375 0  0.140625 0.09375 0  0.15625 0.09375 0  0.171875 0.09375 0  0.1875 0.09375 0  0.203125 0.09375 0  0.21875 0.09375 0  0.234375 0.09375 0  0.25 0.09375 0  0.265625 0.09375 0  0.28125 0.09375 0  0.296875 0.09375 0  0.3125 0.09375 0  0.328125 0.09375 0  0.34375 0.09375 0  0.359375 0.09375 0  0.375 0.09375 0  0.390625 0.09375 0  0.40625 0.09375 0  0.421875 0.09375 0  0.4375 0.09375 0  0.453125 0.09375 0  0.46875 0.09375 0  0.484375 0.09375 0  0.5 0.09375 0  0.515625 0.09375 0  0.53125 0.09375 0  0.546875 0.09375 0  0.5625 0.09375 0  0.578125 0.09375 0  0.59375 0.09375 0  0.609375 0.09375 0  0.625 0.09375 0  0.640625 0.09375 0  0.65625 0.09375 0  0.671875 0.09375 0  0.6875 0.09375 0  0.703125 0.09375 0  0.71875 0.09375 0  0.734375 0.09375 0  0.75 0.09375 0  0.765625 0.09375 0  0.78125 0.09375 0  0.796875 0.09375 0  0.8125 0.09375 0  0.828125 0.09375 0  0.84375 0.09375 0  0.859375 0.09375 0  0.875 0.09375 0  0.890625 0.09375 0  0.90625 0.09375 0  0.921875 0.09375 0  0.9375 0.09375 0  0.953125 0.09375 0  0.96875 0.09375 0  0.984375 0.09375 0  1 0.09375 0  0 0.109375 0  0.015625 0.109375 0  0.03125 0.109375 0  0.046875 0.109375 0  0.0625 0.109375 0  0.078125 0.109375 0  0.09375 0.109375 0  0.109375 0.109375 0  0.125 0.109375 0  0.140625 0.109375 0  0.15625 0.109375 0  0.171875 0.109375 0  0.1875 0.109375 0  0.203125 0.109375 0  0.21875 0.109375 0  0.234375 0.109375 0  0.25 0.109375 0  0.265625 0.109375 0  0.28125 0.109375 0  0.296875 0.109375 0  0.3125 0.109375 0  0.328125 0.109375 0  0.34375 0.109375 0  0.359375 0.109375 0  0.375 0.109375 0  0.390625 0.109375 0  0.40625 0.109375 0  0.421875 0.109375 0  0.4375 0.109375 0  0.453125 0.109375 0  0.46875 0.109375 0  0.484375 0.109375 0  0.5 0.109375 0  0.515625 0.109375 0  0.53125 0.109375 0  0.546875 0.109375 0  0.5625 0.109375 0  0.578125 0.109375 0  0.59375 0.109375 0  0.609375 0.109375 0  0.625 0.109375 0  0.640625 0.109375 0  0.65625 0.109375 0  0.671875 0.109375 0  0.6875 0.109375 0  0.703125 0.109375 0  0.71875 0.109375 0  0.734375 0.109375 0  0.75 0.109375 0  0.765625 0.109375 0  0.78125 0.109375 0  0.796875 0.109375 0  0.8125 0.109375 0  0.828125 0.109375 0  0.84375 0.109375 0  0.859375 0.109375 0  0.875 0.109375 0  0.890625 0.109375 0  0.90625 0.109375 0  0.921875 0.109375 0  0.9375 0.109375 0  0.953125 0.109375 0  0.96875 0.109375 0  0.984375 0.109375 0  1 0.109375 0  0 0.125 0  0.015625 0.125 0  0.03125 0.125 0  0.046875 0.125 0  0.0625 0.125 0  0.078125 0.125 0  0.09375 0.125 0  0.109375 0.125 0  0.125 0.12
[...]
<CellData  Scalars="f_220307"> 
<DataArray  type="Float64"  Name="f_220307"  format="ascii">1.0080242320465606e-08   1.0082080042650532e-08   2.3621000715570698e-08   3.1284977105656820e-08   4.3767558535062762e-08   6.4984352994263501e-08   7.0326252888967767e-08   1.1171178599189088e-07   1.0304165257246215e-07   1.7101867609858383e-07   1.4159897485507612e-07   2.4233484126591346e-07   1.8562711761058958e-07   3.2497417972868375e-07   2.3470223993567309e-07   4.1814135849894048e-07   2.8835185138172276e-07   5.2093951866757129e-07   3.4605936920981049e-07   6.3237894258066621e-07   4.0726909949496120e-07   7.5138660696003755e-07   4.7139159413575212e-07   8.7681653324536846e-07   5.3780933221486847e-07   1.0074608372368971e-06   6.0588267121063954e-07   1.1420613725085396e-06   6.7495601060130052e-07   1.2793218561981245e-06   7.4436410880257764e-07   1.4179203605021012e-06   8.1343849250654899e-07   1.5565220502002068e-06   8.8151389679722144e-07   1.6937920434072295e-06   9.4793467398542760e-07   1.8284082719633820e-06   1.0120611096619659e-06   1.9590742177185384e-06   1.0732755849580405e-06   2.0845314022950507e-06   1.1309885257036633e-06   2.2035715096872180e-06   1.1846440815197767e-06   2.3150480254367419e-06   1.2337254797235526e-06   2.4178872803589596e-06   1.2777600027081626e-06   2.5110987920684477e-06   1.3163235412776953e-06   2.5937848050732382e-06   1.3490446791356751e-06   2.6651489379654542e-06   1.3756082702000983e-06   2.7245038533919597e-06   1.3957584738959612e-06   2.7712778782064186e-06   1.4093012188937104e-06   2.8050205093561816e-06   1.4161060722426564e-06   2.8254067523602380e-06   1.4161074954158693e-06   2.8322402515213439e-06   1.4093054751656007e-06   2.8254551805394896e-06   1.3957655234688472e-06   2.8051168761387680e-06   1.3756180463977873e-06   2.7714212086703843e-06   1.3490570876944374e-06   2.7246926952048124e-06   1.3163384596930210e-06   2.6653813734977310e-06   1.2777772791259842e-06   2.5940584674346970e-06   1.2337449319524186e-06   2.5114108848888924e-06   1.1846654959612193e-06   2.4182346017268085e-06   1.1310116560303066e-06   2.3154269950827006e-06   1.0733001512380569e-06   2.2039782001182595e-06   1.0120867974841277e-06   2.0849615734068996e-06   9.4796113387037051e-07   1.9595233546458968e-06   8.8154074418531275e-07   1.8288716265182410e-06   8.1346530832077738e-07   1.6942646788341068e-06   7.4439044071432784e-07   1.5569988891100507e-06   6.7498137540426541e-07   1.4183962361405670e-06   6.0590655845883029e-07   1.2797915672095882e-06   5.3783120941179130e-07   1.1425197412509475e-06   4.7141091385795384e-07   1.0079027719071548e-06   4.0728530890498193e-07   8.7723709442592091e-07   3.4607192246892661e-07   7.5178107906492774e-07   2.8836022572976223e-07   6.3274291136554714e-07   2.3470595610598752e-07   5.2126895613172604e-07   1.8562576594110000e-07   4.1843271728366210e-07   1.4159224841526633e-07   3.2522450048281033e-07   1.0302938933162623e-07   2.4254187804703128e-07   7.0308489524966758e-08   1.7118104880334136e-07   4.3744598851118548e-08   1.1182917683087994e-07   2.3593500179517574e-08   6.5057784023167287e-08   1.0049282554964478e-08   3.1317262346688672e-08   3.2425627261953981e-09   1.0932563021724311e-08   2.3932614382555814e-09   4.1001155938985511e-09   5.0570146185296467e-08   4.2913271635288096e-08   8.4184123132383326e-08   8.4188998770548843e-08   1.3073404568721952e-07   1.3074066569641211e-07   1.8977350223291610e-07   1.8978170901685892e-07   2.6073496027287047e-07   2.6074467520698262e-07   3.4293570573695346e-07   3.4294692134223449e-07   4.3558457104105553e-07   4.3559732836078813e-07   5.3778962449978693e-07   5.3780399256796041e-07   6.4856679834444454e-07   6.4858285974075297e-07   7.6684939001905975e-07   7.6686723086526856e-07   8.9149835222699595e-07   8.9151805496906595e-07   1.0213132757091261e-06   1.0213349135688336e-06   1.1550439603541637e-06   1.1550675930521851e-06   1.2914024640877921e-06   1.2914281343356836e-06   1.4290755136718269e-06   1.4291032446043473e-06   1.5667371585518048e-06   1.5667669516427386e-06   1.7030615457126385e-06   1.7030933793756270e-06   1.8367356928125454e-06   1.8367695215082617e-06   1.9664721366783386e-06   1.9665078905182785e-06   2.0910213356014641e-06   2.0910589203805832e-06   2.2091837056038837e-06   2.2092230033726603e-06   2.3198211752646491e-06   2.3198620452310561e-06   2.4218681479181535e-06   2.4219104276551074e-06   2.5143417651860597e-06   2.5143852723109042e-06   2.5963513734434081e-06   2.5963959075138558e-06   2.6671071023970687e-06   2.6671524468093621e-06   2.7259274721481843e-06   2.7259733968797952e-06   2.7722459567577508e-06   2.7722922207117688e-06   2.8056164403649249e-06   2.8056627940421632e-06   2.8257175132438424e-06   2.8257637018015270e-06   2.8323555673314656e-06   2.8324013332078075e-06   2.8254666602195370e-06   2.8255117464075977e-06   2.8051171304862627e-06   2.8051612833599129e-06   2.7715029585126320e-06   2.7715459308510386e-06   2.7249478783749969e-06   2.7249894323764527e-06   2.6659002592277502e-06   2.6659401693871890e-06   2.5949287866919522e-06   2.5949668425402896e-06   2.5127169850409902e-06   2.5127529940515219e-06   2.4200566336884824e-06   2.4200904236303912e-06   2.3178401407752621e-06   2.3178715622944306e-06   2.2070519476805582e-06   2.2070808765108122e-06   2.0887590471675690e-06   2.0887853861085536e-06   1.9641007063067379e-06   1.9641243871150152e-06   1.8342774934150056e-06   1.8342984784225593e-06   1.7005397145256167e-06   1.7005579979284009e-06   1.5641753708183977e-06   1.5641909797070326e-06   1.4264977528534722e-06   1.4265107480375012e-06   1.2888327914627323e-06   1.2888432677954713e-06   1.1525062868115483e-06   1.1525143732424339e-06   1.0188311387985848e-06   1.0188369979087323e-06   8.8909470182653383e-07   8.8909852890765408e-07   7.6454638583792191e-07   7.6454840736409943e-07   6.4638562311630918e-07   6.4638609444305575e-07   5.3575031691291485e-07   5.3574951904651647e-07   4.3370588320404217e-07   4.3370411847985399e-07   3.4123499177480872e-07   3.4123257772636122e-07   2.5922810543617822e-07   2.5922536659477446e-07   1.8847490932441215e-07   1.8847216564336045e-07   1.2965671363989964e-07   1.2965426404144581e-07   8.3339904191221062e-08   8.3338002534314387e-08   4.9970505867261327e-08   4.9969324524652485e-08   2.9869914645230293e-08   2.9869486903603019e-08   2.3231843394496561e-08   2.3231966041790897e-08   2.2473991649032663e-08   3.0120545508371579e-08   1.2265371792405144e-07   1.0144746219713702e-07   1.6912163318818008e-07   1.6912727046317930e-07   2.2789339590538234e-07   2.2790061812220688e-07   2.9840484348123612e-07   2.9841361381966416e-07   3.7997791497871973e-07   3.7998820090552866e-07   4.7182762637104641e-07   4.7183942072295054e-07   5.7306979677905536e-07   5.7308311799692085e-07   6.8272964272702786e-07   6.8274452882153365e-07   7.9975121044450848e-07   7.9976771065446766e-07   9.2300757335834125e-07   9.2302574019189731e-07   1.0513117040221614e-06   1.0513315866350761e-06   1.1834279197660478e-06   1.1834495586274595e-06   1.3180837935939832e-06   1.3181072164952827e-06   1.4539824169183681e-06   1.4540076357657345e-06   1.5898148963609295e-06   1.5898419049719296e-06   1.7242729648866143e-06   1.7243017372661725e-06   1.8560615858276655e-06   1.8560920751951901e-06   1.9839114287416033e-06   1.9839435671058003e-06   2.1065910971082699e-06   2.1066247951549695e-06   2.2229189900192929e-06   2.2229541376218222e-06   2.3317746837203321e-06   2.3318111507605584e-06   2.4321097237790854e-06   2.4321473612744337e-06   2.5229577235673480e-06   2.5229963650613909e-06   2.6034436719582412e-06   2.6034831353538786e-06   2.6727923608733357e-06   2.6728324504615523e-06   2.7303358516858050e-06   2.7303763601124770e-06   2.7755199076154485e-06   2.7755606185240383e-06   2.8079093315584343e-06   2.8079500217932416e-06   2.8271921571444242e-06   2.8272325994661078e-06   2.8331826526481975e-06   2.8332226184799661e-06   2.8258231095955027e-06   2.8258623713727605e-06   2.8051843974708723e-06   2.8052227317710459e-06   2.7714652809786105e-06   2.7715024708576492e-06   2.7249905050366841e-06   2.7250263427897593e-06   2.6662076662419351e-06   2.6662419560834998e-06   2.5956829015524697e-06   2.5957154619615506e-06   2.5140954352104121e-06   2.5141261013388182e-06   2.4222310361479227e-06   2.4222596621483363e-06   2.3209744497549972e-06   2.3210009107195384e-06   2.2113008759548494e-06   2.2113250699473721e-06   2.0942665762547980e-06   2.0942884260545055e-06   1.9709987000749919e-06   1.9710181546630992e-06   1.8426844283448182e-06   1.8427014642498289e-06   1.7105595387605769e-06   1.7105741611359454e-06   1.5758965031370141e-06   1.5759087465068027e-06   1.4399922312261820e-06   1.4400021600841425e-06   1.3041555791657043e-06   1.3041632881881815e-06   1.1696947430058467e-06   1.1697003568031558e-06   1.0379046584468145e-06   1.0379083310934551e-06   9.1005452847939935e-07   9.1005644246878546e-07   7.8737559898817878e-07   7.8737596370695087e-07   6.7104930006490551e-07   6.7104834957415785e-07   5.6219586743228997e-07   5.6219385747284423e-07   4.6186355359913050e-07   4.6186075761124140e-07   3.7101853284163377e-07   3.7101523676409024e-07   2.9053559744174417e-07   2.9053209277907492e-07   2.2118973479198510e-07   2.2118630965962258e-07   1.6364866693698302e-07   1.6364559413404611e-07   1.1846642433252195e-07   1.1846394563620745e-07   8.6078015820840107e-08   8.6076321164542631e-08   6.6795245885140760e-08   6.6794445529258236e-08   6.0803717736481051e-08   6.0803804699815812e-08   6.8161037454252863e-08   6.8161840080435334e-08   6.7600695894272031e-08   8.8797315076152115e-08   2.2649607407236570e-07   1.8512469570320913e-07   2.8527915677336896e-07   2.8528540263202923e-07   3.5552347963047300e-07   3.5553106112137277e-07   4.3655418199059783e-07   4.3656317564245174e-07   5.2759181810336301e-07   5.2760224498656937e-07   6.2776018613641004e-07   6.2777206354345648e-07   7.3609492449206594e-07   7.3610827439780561e-07   8.5155287745572096e-07   8.5156772679815825e-07   9.7302218644259362e-07   9.7303856444817166e-07   1.0993330269340871e-06   1.0993509611915373e-06   1.2292688948745910e-06   1.2292884072364067e-06   1.3615783373005822e-06   1.3615994400774634e-06   1.4949870157203356e-06   1.4950097086849089e-06   1.6282099876274026e-06   1.6282342554790380e-06   1.7599640880044559e-06   1.7599898987277907e-06   1.8889802926314484e-06   1.8890075963101420e-06   2.0140159440144088e-06   2.0140446723013319e-06   2.1338667224178500e-06   2.1338967884762038e-06   2.2473782472267755e-06   2.2474095459152446e-06   2.3534571964415453e-06   2.3534896052146152e-06   2.4510818378259844e-06   2.4511152176757016e-06   2.5393118700332541e-06   2.5393460668802328e-06   2.6172974792649919e-06   2.6173323256008095e-06   2.6842875239881347e-06   2.6843228406848529e-06   2.7396367692820313e-06   2.7396723676857253e-06   2.7828121009357860e-06   2.7828477847652349e-06   2.8133976592293173e-06   2.8134332272484961e-06   2.8310988440003523e-06   2.8311340920098318e-06   2.8357451511788821e-06   2.8357798746630808e-06   2.8272918141596608e-06   2.8273258106153384e-06   2.8058202345347563e-06   2.8058533058555626e-06   2.7715371970104636e-06   2.7715691521093788e-06   2.7247728775229441e-06   2.7248035344627951e-06   2.6659776622652061e-06   2.6660068505991679e-06   2.5957178091620324e-06   2.5957453722124844e-06   2.5146699937030798e-06   2.5146957904861546e-06   2.4236147908382734e-06   2.4236386981682940e-06   2.3234291564772234e-06   2.3234510706323495e-06   2.2150779807322078e-06   2.2150978191719892e-06   2.0996047940925320e-06   2.0996224968830501e-06   1.9781217162435852e-06   1.9781372474250190e-06   1.8517987444263183e-06   1.8518120929183100e-06   1.7218524840450397e-06   1.7218636646297879e-06   1.5895344305821809e-06   1.5895434844278410e-06   1.4561189153958410e-06   1.4561259104630362e-06   1.3228908314989968e-06   1.3228958625645141e-06   1.1911332576064997e-06   1.1911364460235852e-06   1.0621150997467241e-06   1.0621165928006748e-06   9.3707886924477071e-07   9.3707883925861514e-07   8.1722871513005012e-07   8.1722735787954643e-07   7.0371882591494151e-07   7.0371635870448384e-07   5.9764231282828193e-07   5.9763897183161252e-07   5.0002068137288808e-07   5.0001671824607827e-07   4.1179399280801272e-07   4.1178967038730479e-07   3.3381181028465257e-07   3.3380739714297840e-07   2.6682501691790413e-07   2.6682078052270565e-07   2.1147858453131119e-07   2.1147478274657027e-07   1.6830536267023588e-07   1.6830223317539709e-07   1.3772094751963723e-07   1.3771869477839198e-07   1.2001967966239955e-07   1.2001845890386182e-07   1.1537180808442244e-07   1.1537170565245847e-07   1.2382184286299289e-07   1.2382285317014126e-07   1.4528809246018944e-07   1.4529009987808212e-07   1.3820055345083474e-07   1.7956613758590444e-07   3.6110026082044640e-07   2.9314129948760875e-07   4.3154054932724159e-07   4.3154717624508999e-07   5.1239711016713014e-07   5.1240479678003951e-07   6.0289256229930428e-07   6.0290148358776734e-07   7.0215619452025372e-07   7.0216642301111370e-07   8.0923251110687015e-07   8.0924409017743929e-07   9.2309055907344036e-07   9.2310352139868217e-07   1.0426339307657400e-06   1.0426483023876913e-06   1.1667113672227589e-06   1.1667271676584647e-06   1.2941278743907356e-06   1.2941451153340733e-06   1.4236562520189589e-06   1.4236749355341541e-06   1.5540489274269702e-06   1.5540690438881254e-06   1.6840499817608484e-06   1.6840715081830045e-06   1.8124072542507210e-06   1.8124301528352265e-06   1.9378844081994905e-06   1.9379086254393674e-06   2.0592728432777935e-06   2.0592983093806067e-06   2.1754033392798350e-06   2.1754299681359406e-06   2.2851573198104314e-06   2.2851850093372681e-06   2.3874776276658465e-06   2.3875062603687514e-06   2.4813787076230114e-06   2.4814081517679240e-06   2.5659560994839436e-06   2.5659862102919962e-06   2.6403951495968400e-06   2.6404257707667065e-06   2.7039788569613538e-06   2.7040098224293154e-06   2.7560947788441641e-06   2.7561259145465450e-06   2.7962409286658927e-06   2.7962720547925538e-06   2.8240306106126473e-06   2.8240615433798970e-06   2.8391961429452266e-06   2.8392266971869322e-06   2.8415914358100913e-06   2.8416214267320326e-06   2.8311933970208097e-06   2.8312226428225006e-06   2.8081021539955465e-06   2.8081304778322821e-06   2.7725400884864200e-06   2.7725673207429830e-06   2.7248496939151982e-06   2.7248756742254933e-06   2.6654902759603754e-06   2.6655148553714298e-06   2.5950335280416971e-06   2.5950565707392850e-06   2.5141580244663422e-06   2.5141794098131048e-06   2.4236426842451997e-06   2.4236623082636045e-06   2.3243592681606502e-06   2.3243770452624529e-06   2.2172639821579013e-06   2.2172798462903861e-06   2.1033882669474949e-06   2.1034021730896612e-06   1.9838288633292787e-06   1.9838407883116189e-06   1.8597372482751747e-06   1.8597471918015900e-06   1.7323085441661464e-06   1.7323165292696992e-06   1.6027700072208650e-06   1.6027760809392951e-06   1.4723692068197000e-06   1.4723734401375665e-06   1.3423620087504666e-06   1.3423644968028589e-06   1.2140004787275248e-06   1.2140013402933118e-06   1.0885208223958553e-06   1.0885201993990907e-06   9.6713147817709052e-07   9.6712953463443107e-07   8.5100147721532652e-07   8.5099839804635091e-07   7.4124918325868090e-07   7.4124517235655254e-07   6.3893152014965169e-07   6.3892679828419665e-07   5.4503379134507311e-07   5.4502859326942279e-07   4.6046018918307514e-07   4.6045476017211718e-07   3.8602508531818182e-07   3.8601967690674597e-07   3.2244518633688648e-07   3.2244005115318029e-07   2.7033262995259577e-07   2.7032801551037056e-07   2.3018908814405352e-07   2.3018522946031172e-07   2.0240093391706352e-07   2.0239804477946104e-07   1.8723551788648458e-07   1.8723378061612996e-07   1.8483858968869636e-07   1.8483814327197086e-07   1.9523288703750471e-07   1.9523381381371509e-07   2.1831789944942982e-07   2.1832021278985315e-07   2.5387079241488849e-07   2.5387443566014135e-07   2.3359427105365136e-07   3.0155334073209962e-07   5.2517196615433504e-07   4.2445843721993954e-07   6.0649899553868531e-07   6.0650571196318488e-07   6.9700496183941733e-07   6.9701247290708206e-07   7.9581922940314199e-07   7.9582778176793039e-07   9.0199082622878166e-07   9.0200054046809916e-07   1.0144976466709766e-06   1.0145085919292683e-06   1.1322563760917890e-06   1.1322685969807855e-06   1.2541329861051524e-06   1.2541465112565288e-06   1.3789536978560207e-06   1.3789685422907755e-06   1.5055163145321518e-06   1.5055324799839435e-06   1.6326018191690438e-06   1.6326192938390923e-06   1.7589861294561175e-06   1.7590048874030344e-06   1.8834518976280785e-06   1.8834718983292182e-06   2.0048002431820240e-06   2.0048214311114943e-06   2.1218623056147133e-06   2.1218846100904765e-06   2.2335105067046786e-06   2.2335338420808836e-06   2.3386694139265076e-06   2.3386936801007390e-06   2.4363261007256642e-06   2.4363511838642511e-06   2.5255399041215015e-06   2.5255656776687646e-06   2.6054514853931029e-06   2.6054778114477911e-06   2.6752911074080586e-06   2.6753178381240617e-06   2.7343860482453620e-06   2.7344130274665800e-06   2.7821670803078679e-06   2.7821941454664755e-06   2.8181739523904940e-06   2.8182009362967525e-06   2.8420598217556314e-06   2.8420865547945152e-06   2.8535945942837689e-06   2.8536209060779426e-06   2.8526671394074010e-06   2.8526928613582831e-06   2.8392863599296096e-06   2.8393113268111762e-06   2.8135811051123424e-06   2.8136051574225140e-06   2.7757989290221419e-06   2.7758219147012216e-06   2.7263037051491717e-06   2.7263254816450461e-06   2.6655721212000102e-06   2.6655925571034087e-06   2.5941890867407245e-06   2.5942080637899770e-06   2.5128420993770282e-06   2.5128595136303104e-06   2.4223146221214480e-06   2.4223303857526956e-06   2.3234785369752923e-06   2.3234925793753607e-06   2.2172857466301892e-06   2.2172980157964414e-06   2.1047590059754817e-06   2.1047694691689846e-06   1.9869820704282710e-06   1.9869907153955077e-06   1.8650892574089264e-06   1.8650960927492391e-06   1.7402545204002839e-06   1.7402595762168696e-06   1.6136801414966232e-06   1.6136834696158162e-06   1.4865851507196155e-06   1.4865868248651336e-06   1.3601935844421918e-06   1.3601936998787601e-06   1.2357226948296339e-06   1.2357213683014280e-06   1.1143712253134564e-06   1.1143685941813359e-06   9.9730786369217691e-07   9.9730408521718016e-07   8.8565998490029920e-07   8.8565523492811833e-07   7.8050279137556874e-07   7.8049726297819515e-07   6.8284895611478850e-07   6.8284285749719233e-07   5.9363886766125785e-07   5.9363242001025968e-07   5.1373157126096388e-07   5.1372500586367166e-07   4.4389649336978651e-07   4.4389004830015311e-07   3.8480602921261338e-07   3.8479994539655596e-07   3.3702906453560677e-07   3.3702358116981767e-07   3.0102549419437379e-07   3.0102084340576623e-07   2.7714178984301122e-07   2.7713819061435586e-07   2.6560765948784623e-07   2.6560531074462141e-07   2.6653383035835054e-07   2.6653290324351984e-07   2.7991097540198486e-07   2.7991160494573194e-07   3.0560979108244265e-07   3.0561206822021335e-07   3.4338221985609625e-07   3.4338618718346378e-07   3.9286379595192521e-07   3.9286945553436321e-07   3.5286355404659007e-07   4.5358443261373620e-07   7.1713244772987415e-07   5.7781242006712466e-07   8.0847077321343042e-07   8.0847724654171146e-07   9.0757019977770521e-07   9.0757723157326776e-07   1.0134770489059749e-06   1.0134849309996254e-06   1.1251718838933375e-06   1.1251807777263814e-06   1.2415793151891314e-06   1.2415893148322822e-06   1.3615783994410961e-06   1.3615895619086545e-06   1.4840134811348216e-06   1.4840258389618441e-06   1.6077053587910538e-06   1.6077189248619591e-06   1.7314626682343791e-06   1.7314774376971495e-06   1.8540933754478502e-06   1.8541093266612713e-06   1.9744162711346701e-06   1.9744333660926199e-06   2.0912723574080304e-06   2.0912905422574192e-06   2.2035360181407169e-06   2.2035552236812960e-06   2.310125