<?xml version="1.0"?>
<VTKFile type="UnstructuredGrid"  version="0.1"  >
<UnstructuredGrid>
<Piece  NumberOfPoints="25" NumberOfCells="32">
<Points>
<DataArray  type="Float64"  NumberOfComponents="3"  format="ascii">0 0 0  0.25 0 0  0.5 0 0  0.75 0 0  1 0 0  0 0.25 0  0.25 0.25 0  0.5 0.25 0  0.75 0.25 0  1 0.25 0  0 0.5 0  0.25 0.5 0  0.5 0.5 0  0.75 0.5 0  1 0.5 0  0 0.75 0  0.25 0.75 0  0.5 0.75 0  0.75 0.75 0  1 0.75 0  0 1 0  0.25 1 0  0.5 1 0  0.75 1 0  1 1 0  </DataArray>
</Points>
<Cells>
<DataArray  type="UInt32"  Name="connectivity"  format="ascii">0 1 6  0 5 6  1 2 7  1 6 7  2 3 8  2 7 8  3 4 9  3 8 9  5 6 11  5 10 11  6 7 12  6 11 12  7 8 13  7 12 13  8 9 14  8 13 14  10 11 16  10 15 16  11 12 17  11 16 17  12 13 18  12 17 18  13 14 19  13 18 19  15 16 21  15 20 21  16 17 22  16 21 22  17 18 23  17 22 23  18 19 24  18 23 24  </DataArray>
<DataArray  type="UInt32"  Name="offsets"  format="ascii">3 6 9 12 15 18 21 24 27 30 33 36 39 42 45 48 51 54 57 60 63 66 69 72 75 78 81 84 87 90 93 96 </DataArray>
<DataArray  type="UInt8"  Name="types"  format="ascii">5 5 5 5 5 5 5 5 5 5 5 5 5 5 5 5 5 5 5 5 5 5 5 5 5 5 5 5 5 5 5 5 </DataArray>
</Cells>
<CellData  Scalars="f_95"> 
<DataArray  type="Float64"  Name="f_95"  format="ascii">2.5380352057521848e-08   1.7030828331374963e-08   6.0175499327907284e-09   3.1469659485114172e-09   5.5926950210940366e-09   5.3475272430205180e-09   2.4673995579620584e-08   1.5809944877684855e-08   3.0862267171611043e-08   1.6628303922181548e-10   3.4718311424070622e-08   1.3991468914386575e-08   2.1073039858695878e-08   3.2430424509471494e-08   1.4450638222186104e-08   1.7656406657022817e-08   1.7522568507287389e-08   1.4124889359850801e-08   3.2332823197337616e-08   2.0989337336015596e-08   1.4009536486391860e-08   3.4602759943800276e-08   1.4673247415204752e-10   3.0712198052505065e-08   1.5586529750341937e-08   2.4673995579620621e-08   5.4838666360623129e-09   5.6950287560864735e-09   3.1725999827233316e-09   6.0842031337075797e-09   1.6855384122124275e-08   2.5416628741730727e-08   </DataArray> 
</CellData> 
</Piece>
</UnstructuredGrid>
</VTKFile>