<?xml version="1.0"?>
<VTKFile type="UnstructuredGrid"  version="0.1"  >
<UnstructuredGrid>
<Piece  NumberOfPoints="81" NumberOfCells="128">
<Points>
<DataArray  type="Float64"  NumberOfComponents="3"  format="ascii">0 0 0  0.125 0 0  0.25 0 0  0.375 0 0  0.5 0 0  0.625 0 0  0.75 0 0  0.875 0 0  1 0 0  0 0.125 0  0.125 0.125 0  0.25 0.125 0  0.375 0.125 0  0.5 0.125 0  0.625 0.125 0  0.75 0.125 0  0.875 0.125 0  1 0.125 0  0 0.25 0  0.125 0.25 0  0.25 0.25 0  0.375 0.25 0  0.5 0.25 0  0.625 0.25 0  0.75 0.25 0  0.875 0.25 0  1 0.25 0  0 0.375 0  0.125 0.375 0  0.25 0.375 0  0.375 0.375 0  0.5 0.375 0  0.625 0.375 0  0.75 0.375 0  0.875 0.375 0  1 0.375 0  0 0.5 0  0.125 0.5 0  0.25 0.5 0  0.375 0.5 0  0.5 0.5 0  0.625 0.5 0  0.75 0.5 0  0.875 0.5 0  1 0.5 0  0 0.625 0  0.125 0.625 0  0.25 0.625 0  0.375 0.625 0  0.5 0.625 0  0.625 0.625 0  0.75 0.625 0  0.875 0.625 0  1 0.625 0  0 0.75 0  0.125 0.75 0  0.25 0.75 0  0.375 0.75 0  0.5 0.75 0  0.625 0.75 0  0.75 0.75 0  0.875 0.75 0  1 0.75 0  0 0.875 0  0.125 0.875 0  0.25 0.875 0  0.375 0.875 0  0.5 0.875 0  0.625 0.875 0  0.75 0.875 0  0.875 0.875 0  1 0.875 0  0 1 0  0.125 1 0  0.25 1 0  0.375 1 0  0.5 1 0  0.625 1 0  0.75 1 0  0.875 1 0  1 1 0  </DataArray>
</Points>
<Cells>
<DataArray  type="UInt32"  Name="connectivity"  format="ascii">0 1 10  0 9 10  1 2 11  1 10 11  2 3 12  2 11 12  3 4 13  3 12 13  4 5 14  4 13 14  5 6 15  5 14 15  6 7 16  6 15 16  7 8 17  7 16 17  9 10 19  9 18 19  10 11 20  10 19 20  11 12 21  11 20 21  12 13 22  12 21 22  13 14 23  13 22 23  14 15 24  14 23 24  15 16 25  15 24 25  16 17 26  16 25 26  18 19 28  18 27 28  19 20 29  19 28 29  20 21 30  20 29 30  21 22 31  21 30 31  22 23 32  22 31 32  23 24 33  23 32 33  24 25 34  24 33 34  25 26 35  25 34 35  27 28 37  27 36 37  28 29 38  28 37 38  29 30 39  29 38 39  30 31 40  30 39 40  31 32 41  31 40 41  32 33 42  32 41 42  33 34 43  33 42 43  34 35 44  34 43 44  36 37 46  36 45 46  37 38 47  37 46 47  38 39 48  38 47 48  39 40 49  39 48 49  40 41 50  40 49 50  41 42 51  41 50 51  42 43 52  42 51 52  43 44 53  43 52 53  45 46 55  45 54 55  46 47 56  46 55 56  47 48 57  47 56 57  48 49 58  48 57 58  49 50 59  49 58 59  50 51 60  50 59 60  51 52 61  51 60 61  52 53 62  52 61 62  54 55 64  54 63 64  55 56 65  55 64 65  56 57 66  56 65 66  57 58 67  57 66 67  58 59 68  58 67 68  59 60 69  59 68 69  60 61 70  60 69 70  61 62 71  61 70 71  63 64 73  63 72 73  64 65 74  64 73 74  65 66 75  65 74 75  66 67 76  66 75 76  67 68 77  67 76 77  68 69 78  68 77 78  69 70 79  69 78 79  70 71 80  70 79 80  </DataArray>
<DataArray  type="UInt32"  Name="offsets"  format="ascii">3 6 9 12 15 18 21 24 27 30 33 36 39 42 45 48 51 54 57 60 63 66 69 72 75 78 81 84 87 90 93 96 99 102 105 108 111 114 117 120 123 126 129 132 135 138 141 144 147 150 153 156 159 162 165 168 171 174 177 180 183 186 189 192 195 198 201 204 207 210 213 216 219 222 225 228 231 234 237 240 243 246 249 252 255 258 261 264 267 270 273 276 279 282 285 288 291 294 297 300 303 306 309 312 315 318 321 324 327 330 333 336 339 342 345 348 351 354 357 360 363 366 369 372 375 378 381 384 </DataArray>
<DataArray  type="UInt8"  Name="types"  format="ascii">5 5 5 5 5 5 5 5 5 5 5 5 5 5 5 5 5 5 5 5 5 5 5 5 5 5 5 5 5 5 5 5 5 5 5 5 5 5 5 5 5 5 5 5 5 5 5 5 5 5 5 5 5 5 5 5 5 5 5 5 5 5 5 5 5 5 5 5 5 5 5 5 5 5 5 5 5 5 5 5 5 5 5 5 5 5 5 5 5 5 5 5 5 5 5 5 5 5 5 5 5 5 5 5 5 5 5 5 5 5 5 5 5 5 5 5 5 5 5 5 5 5 5 5 5 5 5 5 </DataArray>
</Cells>
<CellData  Scalars="f_44113"> 
<DataArray  type="Float64"  Name="f_44113"  format="ascii">1.9739579964525262e-10   1.9017776634897943e-10   1.1477806866650214e-10   1.3228698035787075e-10   3.7241998387532348e-11   5.9707290173159953e-11   1.0382556300646225e-11   2.3918682731738198e-11   4.9938775453201189e-11   4.5770497385359792e-11   1.3290520360569213e-10   1.1249920685212861e-10   2.1034612595779639e-10   1.8507996301204769e-10   2.3594174895840663e-10   2.2115392221343523e-10   1.2322022352598608e-10   9.5484689834007775e-11   7.1983663106196466e-11   6.5482556541759207e-11   4.4502006067154254e-11   5.2107626614439964e-11   5.7231913209474913e-11   6.9252600023142182e-11   1.0272318824830198e-10   1.0666074695417432e-10   1.5432749855540677e-10   1.4242778909844013e-10   1.8131690319091019e-10   1.5562316397178414e-10   1.6651433420384293e-10   1.3866369413417996e-10   4.1999050517825214e-11   1.9838871345164447e-11   4.5294436534642419e-11   3.0600776872297659e-11   7.7703879456817160e-11   7.3348925341329905e-11   1.2074003321334707e-10   1.2608975403356130e-10   1.4917810375537918e-10   1.5789020034213668e-10   1.4635727966631757e-10   1.5012043817824654e-10   1.1366908409763016e-10   1.0735021124166938e-10   6.8523370726711753e-11   5.4512198531199120e-11   1.1780332522364325e-11   7.9672035709332003e-12   5.7525551009886170e-11   4.8364578282574514e-11   1.2088408830076895e-10   1.1145522634347424e-10   1.6508652109219680e-10   1.6159503346840062e-10   1.6421243011401324e-10   1.6956757346003660e-10   1.1877976624341285e-10   1.3070612575573910e-10   5.5392807814415898e-11   6.7790437061782708e-11   9.6473619023127106e-12   1.7222977871554173e-11   4.9966533701123540e-11   6.6779967772455030e-11   1.0123257484454885e-10   1.0836213994422051e-10   1.4863708402226635e-10   1.4407801030642868e-10   1.6436273049727666e-10   1.5493198463078990e-10   1.3917680705669576e-10   1.3482417864361714e-10   8.7859242945157748e-11   9.5543399835766209e-11   4.0655109203269508e-11   6.0124689325310574e-11   2.4024701188456970e-11   4.8662757895510906e-11   1.3420787737938138e-10   1.6215022743493982e-10   1.5081590478495037e-10   1.7547430531442007e-10   1.4470371051794378e-10   1.5212647559919070e-10   1.1899566462567500e-10   1.1000545758145826e-10   8.8742899971592022e-11   7.4035849618664444e-11   7.1723825154564375e-11   6.5311714447530237e-11   7.8111682672233092e-11   8.8976786477975918e-11   1.0329812002184766e-10   1.3053768775673198e-10   2.1531772884724845e-10   2.3716216347390395e-10   1.7729237227300736e-10   2.0975941699963873e-10   1.1140705545065945e-10   1.3040577012188762e-10   5.5562915047696994e-11   5.3002093917946590e-11   4.2481217519763426e-11   2.2911698115998794e-11   7.9898958196072588e-11   5.7789351203775700e-11   1.4585607658464333e-10   1.3721719039936943e-10   2.0105089327926278e-10   2.1443279424464862e-10   2.4547638368649218e-10   2.4913688848728997e-10   1.6515816426596579e-10   1.9140527295408935e-10   6.8234488010592086e-11   9.1251327255591008e-11   1.0929497214753573e-11   1.6191540113205465e-11   2.6861038126594881e-11   1.0154000591190760e-11   1.0676332153935482e-10   7.6786874448828632e-11   2.0377057860464731e-10   1.7706985594837621e-10   2.6033120139687773e-10   2.5232390828141338e-10   </DataArray> 
</CellData> 
</Piece>
</UnstructuredGrid>
</VTKFile>