<?xml version="1.0"?>
<VTKFile type="UnstructuredGrid"  version="0.1"  >
<UnstructuredGrid>
<Piece  NumberOfPoints="1089" NumberOfCells="2048">
<Points>
<DataArray  type="Float64"  NumberOfComponents="3"  format="ascii">0 0 0  0.03125 0 0  0.0625 0 0  0.09375 0 0  0.125 0 0  0.15625 0 0  0.1875 0 0  0.21875 0 0  0.25 0 0  0.28125 0 0  0.3125 0 0  0.34375 0 0  0.375 0 0  0.40625 0 0  0.4375 0 0  0.46875 0 0  0.5 0 0  0.53125 0 0  0.5625 0 0  0.59375 0 0  0.625 0 0  0.65625 0 0  0.6875 0 0  0.71875 0 0  0.75 0 0  0.78125 0 0  0.8125 0 0  0.84375 0 0  0.875 0 0  0.90625 0 0  0.9375 0 0  0.96875 0 0  1 0 0  0 0.03125 0  0.03125 0.03125 0  0.0625 0.03125 0  0.09375 0.03125 0  0.125 0.03125 0  0.15625 0.03125 0  0.1875 0.03125 0  0.21875 0.03125 0  0.25 0.03125 0  0.28125 0.03125 0  0.3125 0.03125 0  0.34375 0.03125 0  0.375 0.03125 0  0.40625 0.03125 0  0.4375 0.03125 0  0.46875 0.03125 0  0.5 0.03125 0  0.53125 0.03125 0  0.5625 0.03125 0  0.59375 0.03125 0  0.625 0.03125 0  0.65625 0.03125 0  0.6875 0.03125 0  0.71875 0.03125 0  0.75 0.03125 0  0.78125 0.03125 0  0.8125 0.03125 0  0.84375 0.03125 0  0.875 0.03125 0  0.90625 0.03125 0  0.9375 0.03125 0  0.96875 0.03125 0  1 0.03125 0  0 0.0625 0  0.03125 0.0625 0  0.0625 0.0625 0  0.09375 0.0625 0  0.125 0.0625 0  0.15625 0.0625 0  0.1875 0.0625 0  0.21875 0.0625 0  0.25 0.0625 0  0.28125 0.0625 0  0.3125 0.0625 0  0.34375 0.0625 0  0.375 0.0625 0  0.40625 0.0625 0  0.4375 0.0625 0  0.46875 0.0625 0  0.5 0.0625 0  0.53125 0.0625 0  0.5625 0.0625 0  0.59375 0.0625 0  0.625 0.0625 0  0.65625 0.0625 0  0.6875 0.0625 0  0.71875 0.0625 0  0.75 0.0625 0  0.78125 0.0625 0  0.8125 0.0625 0  0.84375 0.0625 0  0.875 0.0625 0  0.90625 0.0625 0  0.9375 0.0625 0  0.96875 0.0625 0  1 0.0625 0  0 0.09375 0  0.03125 0.09375 0  0.0625 0.09375 0  0.09375 0.09375 0  0.125 0.09375 0  0.15625 0.09375 0  0.1875 0.09375 0  0.21875 0.09375 0  0.25 0.09375 0  0.28125 0.09375 0  0.3125 0.09375 0  0.34375 0.09375 0  0.375 0.09375 0  0.40625 0.09375 0  0.4375 0.09375 0  0.46875 0.09375 0  0.5 0.09375 0  0.53125 0.09375 0  0.5625 0.09375 0  0.59375 0.09375 0  0.625 0.09375 0  0.65625 0.09375 0  0.6875 0.09375 0  0.71875 0.09375 0  0.75 0.09375 0  0.78125 0.09375 0  0.8125 0.09375 0  0.84375 0.09375 0  0.875 0.09375 0  0.90625 0.09375 0  0.9375 0.09375 0  0.96875 0.09375 0  1 0.09375 0  0 0.125 0  0.03125 0.125 0  0.0625 0.125 0  0.09375 0.125 0  0.125 0.125 0  0.15625 0.125 0  0.1875 0.125 0  0.21875 0.125 0  0.25 0.125 0  0.28125 0.125 0  0.3125 0.125 0  0.34375 0.125 0  0.375 0.125 0  0.40625 0.125 0  0.4375 0.125 0  0.46875 0.125 0  0.5 0.125 0  0.53125 0.125 0  0.5625 0.125 0  0.59375 0.125 0  0.625 0.125 0  0.65625 0.125 0  0.6875 0.125 0  0.71875 0.125 0  0.75 0.125 0  0.78125 0.125 0  0.8125 0.125 0  0.84375 0.125 0  0.875 0.125 0  0.90625 0.125 0  0.9375 0.125 0  0.96875 0.125 0  1 0.125 0  0 0.15625 0  0.03125 0.15625 0  0.0625 0.15625 0  0.09375 0.15625 0  0.125 0.15625 0  0.15625 0.15625 0  0.1875 0.15625 0  0.21875 0.15625 0  0.25 0.15625 0  0.28125 0.15625 0  0.3125 0.15625 0  0.34375 0.15625 0  0.375 0.15625 0  0.40625 0.15625 0  0.4375 0.15625 0  0.46875 0.15625 0  0.5 0.15625 0  0.53125 0.15625 0  0.5625 0.15625 0  0.59375 0.15625 0  0.625 0.15625 0  0.65625 0.15625 0  0.6875 0.15625 0  0.71875 0.15625 0  0.75 0.15625 0  0.78125 0.15625 0  0.8125 0.15625 0  0.84375 0.15625 0  0.875 0.15625 0  0.90625 0.15625 0  0.9375 0.15625 0  0.96875 0.15625 0  1 0.15625 0  0 0.1875 0  0.03125 0.1875 0  0.0625 0.1875 0  0.09375 0.1875 0  0.125 0.1875 0  0.15625 0.1875 0  0.1875 0.1875 0  0.21875 0.1875 0  0.25 0.1875 0  0.28125 0.1875 0  0.3125 0.1875 0  0.34375 0.1875 0  0.375 0.1875 0  0.40625 0.1875 0  0.4375 0.1875 0  0.46875 0.1875 0  0.5 0.1875 0  0.53125 0.1875 0  0.5625 0.1875 0  0.59375 0.1875 0  0.625 0.1875 0  0.65625 0.1875 0  0.6875 0.1875 0  0.71875 0.1875 0  0.75 0.1875 0  0.78125 0.1875 0  0.8125 0.1875 0  0.84375 0.1875 0  0.875 0.1875 0  0.90625 0.1875 0  0.9375 0.1875 0  0.96875 0.1875 0  1 0.1875 0  0 0.21875 0  0.03125 0.21875 0  0.0625 0.21875 0  0.09375 0.21875 0  0.125 0.21875 0  0.15625 0.21875 0  0.1875 0.21875 0  0.21875 0.21875 0  0.25 0.21875 0  0.28125 0.21875 0  0.3125 0.21875 0  0.34375 0.21875 0  0.375 0.21875 0  0.40625 0.21875 0  0.4375 0.21875 0  0.46875 0.21875 0  0.5 0.21875 0  0.53125 0.21875 0  0.5625 0.21875 0  0.59375 0.21875 0  0.625 0.21875 0  0.65625 0.21875 0  0.6875 0.21875 0  0.71875 0.21875 0  0.75 0.21875 0  0.78125 0.21875 0  0.8125 0.21875 0  0.84375 0.21875 0  0.875 0.21875 0  0.90625 0.21875 0  0.9375 0.21875 0  0.96875 0.21875 0  1 0.21875 0  0 0.25 0  0.03125 0.25 0  0.0625 0.25 0  0.09375 0.25 0  0.125 0.25 0  0.15625 0.25 0  0.1875 0.25 0  0.21875 0.25 0  0.25 0.25 0  0.28125 0.25 0  0.3125 0.25 0  0.34375 0.25 0  0.375 0.25 0  0.40625 0.25 0  0.4375 0.25 0  0.46875 0.25 0  0.5 0.25 0  0.53125 0.25 0  0.5625 0.25 0  0.59375 0.25 0  0.625 0.25 0  0.65625 0.25 0  0.6875 0.25 0  0.71875 0.25 0  0.75 0.25 0  0.78125 0.25 0  0.8125 0.25 0  0.84375 0.25 0  0.875 0.25 0  0.90625 0.25 0  0.9375 0.25 0  0.96875 0.25 0  1 0.25 0  0 0.28125 0  0.03125 0.28125 0  0.0625 0.28125 0  0.09375 0.28125 0  0.125 0.28125 0  0.15625 0.28125 0  0.1875 0.28125 0  0.21875 0.28125 0  0.25 0.28125 0  0.28125 0.28125 0  0.3125 0.28125 0  0.34375 0.28125 0  0.375 0.28125 0  0.40625 0.28125 0  0.4375 0.28125 0  0.46875 0.28125 0  0.5 0.28125 0  0.53125 0.28125 0  0.5625 0.28125 0  0.59375 0.28125 0  0.625 0.28125 0  0.65625 0.28125 0  0.6875 0.28125 0  0.71875 0.28125 0  0.75 0.28125 0  0.78125 0.28125 0  0.8125 0.28125 0  0.84375 0.28125 0  0.875 0.28125 0  0.90625 0.28125 0  0.9375 0.28125 0  0.96875 0.28125 0  1 0.28125 0  0 0.3125 0  0.03125 0.3125 0  0.0625 0.3125 0  0.09375 0.3125 0  0.125 0.3125 0  0.15625 0.3125 0  0.1875 0.3125 0  0.21875 0.3125 0  0.25 0.3125 0  0.28125 0.3125 0  0.3125 0.3125 0  0.34375 0.3125 0  0.375 0.3125 0  0.40625 0.3125 0  0.4375 0.3125 0  0.46875 0.3125 0  0.5 0.3125 0  0.53125 0.3125 0  0.5625 0.3125 0  0.59375 0.3125 0  0.625 0.3125 0  0.65625 0.3125 0  0.6875 0.3125 0  0.71875 0.3125 0  0.75 0.3125 0  0.78125 0.3125 0  0.8125 0.3125 0  0.84375 0.3125 0  0.875 0.3125 0  0.90625 0.3125 0  0.9375 0.3125 0  0.96875 0.3125 0  1 0.3125 0  0 0.34375 0  0.03125 0.34375 0  0.0625 0.34375 0  0.09375 0.34375 0  0.125 0.34375 0  0.15625 0.34375 0  0.1875 0.34375 0  0.21875 0.34375 0  0.25 0.34375 0  0.28125 0.34375 0  0.3125 0.34375 0  0.34375 0.34375 0  0.375 0.34375 0  0.40625 0.34375 0  0.4375 0.34375 0  0.46875 0.34375 0  0.5 0.34375 0  0.53125 0.34375 0  0.5625 0.34375 0  0.59375 0.34375 0  0.625 0.34375 0  0.65625 0.34375 0  0.6875 0.34375 0  0.71875 0.34375 0  0.75 0.34375 0  0.78125 0.34375 0  0.8125 0.34375 0  0.84375 0.34375 0  0.875 0.34375 0  0.90625 0.34375 0  0.9375 0.34375 0  0.96875 0.34375 0  1 0.34375 0  0 0.375 0  0.03125 0.375 0  0.0625 0.375 0  0.09375 0.375 0  0.125 0.375 0  0.15625 0.375 0  0.1875 0.375 0  0.21875 0.375 0  0.25 0.375 0  0.28125 0.375 0  0.3125 0.375 0  0.34375 0.375 0  0.375 0.375 0  0.40625 0.375 0  0.4375 0.375 0  0.46875 0.375 0  0.5 0.375 0  0.53125 0.375 0  0.5625 0.375 0  0.59375 0.375 0  0.625 0.375 0  0.65625 0.375 0  0.6875 0.375 0  0.71875 0.375 0  0.75 0.375 0  0.78125 0.375 0  0.8125 0.375 0  0.84375 0.375 0  0.875 0.375 0  0.90625 0.375 0  0.9375 0.375 0  0.96875 0.375 0  1 0.375 0  0 0.40625 0  0.03125 0.40625 0  0.0625 0.40625 0  0.09375 0.40625 0  0.125 0.40625 0  0.15625 0.40625 0  0.1875 0.40625 0  0.21875 0.40625 0  0.25 0.40625 0  0.28125 0.40625 0  0.3125 0.40625 0  0.34375 0.40625 0  0.375 0.40625 0  0.40625 0.40625 0  0.4375 0.40625 0  0.46875 0.40625 0  0.5 0.40625 0  0.53125 0.40625 0  0.5625 0.40625 0  0.59375 0.40625 0  0.625 0.40625 0  0.65625 0.40625 0  0.6875 0.40625 0  0.71875 0.40625 0  0.75 0.40625 0  0.78125 0.40625 0  0.8125 0.40625 0  0.84375 0.40625 0  0.875 0.40625 0  0.90625 0.40625 0  0.9375 0.40625 0  0.96875 0.40625 0  1 0.40625 0  0 0.4375 0  0.03125 0.4375 0  0.0625 0.4375 0  0.09375 0.4375 0  0.125 0.4375 0  0.15625 0.4375 0  0.1875 0.4375 0  0.21875 0.4375 0  0.25 0.4375 0  0.28125 0.4375 0  0.3125 0.4375 0  0.34375 0.4375 0  0.375 0.4375 0  0.40625 0.4375 0  0.4375 0.4375 0  0.46875 0.4375 0  0.5 0.4375 0  0.53125 0.4375 0  0.5625 0.4375 0  0.59375 0.4375 0  0.625 0.4375 0  0.65625 0.4375 0  0.6875 0.4375 0  0.71875 0.4375 0  0.75 0.4375 0  0.78125 0.4375 0  0.8125 0.4375 0  0.84375 0.4375 0  0.875 0.4375 0  0.90625 0.4375 0  0.9375 0.4375 0  0.96875 0.4375 0  1 0.4375 0  0 0.46875 0  0.03125 0.46875 0  0.0625 0.46875 0  0.09375 0.46875 0  0.125 0.46875 0  0.15625 0.46875 0  0.1875 0.46875 0  0.21875 0.46875 0  0.25 0.46875 0  0.28125 0.46875 0  0.3125 0.46875 0  0.34375 0.46875 0  0.375 0.46875 0  0.40625 0.46875 0  0.4375 0.46875 0  0.46875 0.46875 0  0.5 0.46875 0  0.53125 0.46875 0  0.5625 0.46875 0  0.59375 0.46875 0  0.625 0.46875 0  0.65625 0.46875 0  0.6875 0.46875 0  0.71875 0.46875 0  0.75 0.46875 0  0.78125 0.46875 0  0.8125 0.46875 0  0.84375 0.46875 0  0.875 0.46875 0  0.90625 0.46875 0  0.9375 0.46875 0  0.96875 0.46875 0  1 0.46875 0  0 0.5 0  0.03125 0.5 0  0.0625 0.5 0  0.09375 0.5 0  0.125 0.5 0  0.15625 0.5 0  0.1875 0.5 0  0.21875 0.5 0  0.25 0.5 0  0.28125 0.5 0  0.3125 0.5 0  0.34375 0.5 0  0.375 0.5 0  0.40625 0.5 0  0.4375 0.5 0  0.46875 0.5 0  0.5 0.5 0  0.53125 0.5 0  0.5625 0.5 0  0.59375 0.5 0  0.625 0.5 0  0.65625 0.5 0  0.6875 0.5 0  0.71875 0.5 0  0.75 0.5 0  0.78125 0.5 0  0.8125 0.5 0  0.84375 0.5 0  0.875 0.5 0  0.90625 0.5 0  0.9375 0.5 0  0.96875 0.5 0  1 0.5 0  0 0.53125 0  0.03125 0.53125 0  0.0625 0.53125 0  0.09375 0.53125 0  0.125 0.53125 0  0.15625 0.53125 0  0.1875 0.53125 0  0.21875 0.53125 0  0.25 0.53125 0  0.28125 0.53125 0  0.3125 0.53125 0  0.34375 0.53125 0  0.375 0.53125 0  0.40625 0.53125 0  0.4375 0.53125 0  0.46875 0.53125 0  0.5 0.53125 0  0.53125 0.53125 0  0.5625 0.53125 0  0.59375 0.53125 0  0.625 0.53125 0  0.65625 0.53125 0  0.6875 0.53125 0  0.71875 0.53125 0  0.75 0.53125 0  0.78125 0.531
[...]
<CellData  Scalars="f_132255"> 
<DataArray  type="Float64"  Name="f_132255"  format="ascii">6.0781145264813875e-14   6.0310781485348504e-14   5.8050445767250854e-14   5.9515706806927055e-14   5.4311890221731223e-14   5.6043124665359107e-14   4.9715538840352915e-14   5.1671705334953759e-14   4.4438223050307934e-14   4.6562085753795283e-14   3.8682743471884815e-14   4.0912457134462022e-14   3.2670265079725834e-14   3.4940367753582721e-14   2.6631834852667342e-14   2.8875476653095633e-14   2.0799501254880992e-14   2.2950907894773156e-14   1.5397394701419105e-14   1.7394359616286024e-14   1.0633113343478025e-14   1.2419375264927304e-14   6.6897447001196651e-15   8.2171445244381725e-15   3.7188294682445240e-15   4.9491586825630505e-15   1.8345377792985402e-15   2.7410056848726667e-15   1.1092816478732821e-15   1.6775443254875078e-15   1.5709321958402184e-15   1.7996433907480152e-15   3.2017485786539338e-15   3.1026112068691191e-15   5.9390597675816238e-15   5.5363760048670629e-15   9.6776729843752644e-15   9.0074101981279559e-15   1.4273916233638844e-14   1.3382324640975972e-14   1.9551159583243817e-14   1.8492994756685026e-14   2.5306603057698695e-14   2.4143021559944443e-14   3.1319070171011914e-14   3.0115279348313328e-14   3.7357508851707685e-14   3.6180259994818119e-14   4.3189868329861268e-14   4.2104894115561485e-14   4.8592043989430737e-14   4.7661506995885190e-14   5.3356411806673765e-14   5.2636587420567856e-14   5.7300442440056415e-14   5.6838925355600578e-14   6.0271790962941401e-14   6.0107392329561283e-14   6.2167966091449718e-14   6.2315086514660978e-14   6.2893068081637285e-14   6.3383613214920764e-14   6.1311963382385240e-14   6.3260378145654730e-14   5.8848592545167898e-14   5.6389339535724654e-14   5.5807436171370596e-14   5.5246347879924496e-14   5.1850673958159745e-14   5.1611187898376699e-14   4.7134347530218529e-14   4.7232282519974602e-14   4.1840513662602446e-14   4.2252110157234344e-14   3.6172648936330016e-14   3.6864773092930382e-14   3.0348610421572577e-14   3.1277086843228354e-14   2.4592230050602822e-14   2.5703821548146456e-14   1.9124729703352610e-14   2.0359175646230522e-14   1.4156225653620972e-14   1.5448554645308628e-14   9.8776562897176355e-15   1.1160678842504465e-14   6.4534454441085162e-15   7.6603334079575497e-15   4.0151841092059318e-15   5.0820373259024479e-15   2.6565736718374987e-15   3.5248747563337748e-15   2.4298251250767483e-15   3.0486877440958422e-15   3.3436526906005485e-15   3.6717767727569494e-15   5.3629389801082693e-15   5.3701976276626264e-15   8.4100845772987189e-15   8.0786816434431438e-15   1.2367990188760869e-14   1.1693144001962309e-14   1.7084556774711651e-14   1.6074683703892938e-14   2.2378530755929810e-14   2.1054921518142258e-14   2.8046469742688260e-14   2.6442470794046459e-14   3.3870561279513492e-14   3.2030292508788527e-14   3.9626994743189395e-14   3.7603651913908433e-14   4.5094565337417252e-14   4.2948371375365375e-14   5.0063187063334825e-14   4.7859060528591398e-14   5.4341967010242114e-14   5.2147016929840628e-14   5.7766680442959870e-14   5.5647430664254624e-14   6.0205289094032648e-14   5.8225937578531568e-14   6.1565897975576655e-14   5.9782376328386828e-14   6.1766632061343678e-14   6.0260848097110506e-14   5.9723984556007530e-14   5.9640228360844689e-14   5.4186226927989203e-14   5.1546588530911329e-14   5.0970607034738873e-14   5.0140184858468155e-14   4.6992882802365165e-14   4.6470137570707560e-14   4.2404171582869470e-14   4.2213992499711991e-14   3.7383980866041135e-14   3.7510371845076293e-14   3.2124882343476549e-14   3.2543841769225257e-14   2.6829007591139470e-14   2.7504728645311073e-14   2.1699882102210761e-14   2.2586730671954701e-14   1.6934622563292858e-14   1.7978835876997814e-14   1.2716359765845537e-14   1.3858124815457864e-14   9.2072019631436011e-15   1.0382956562511310e-14   6.5420058777505646e-15   7.6868821028007193e-15   4.8231946868507759e-15   5.8735117572632939e-15   4.1168222217586984e-15   5.0125335796517293e-15   4.4500347093096491e-15   5.1370354210857373e-15   5.8100276517909114e-15   6.2422334991780431e-15   8.1445379608011190e-15   8.2856563196659045e-15   1.1363852451608303e-14   1.1188776890373546e-14   1.5344255528859585e-14   1.4840030512153772e-14   1.9932783592123142e-14   1.9099102183111286e-14   2.4953103484417978e-14   2.3802318860560456e-14   3.0212289152013808e-14   2.8768939366295781e-14   3.5508236186763438e-14   3.3808100216517250e-14   4.0637429701768528e-14   3.8726150389775739e-14   4.5402765920659780e-14   4.3334093238967947e-14   4.9621132715201225e-14   4.7454847795789143e-14   5.3130408921439607e-14   5.0930057255082951e-14   5.5795816698924977e-14   5.3626132792647870e-14   5.7513973142977174e-14   5.5439579205190549e-14   5.8222104290219772e-14   5.6299868903913090e-14   5.7866561132218481e-14   5.6177742991072451e-14   5.5406242099565362e-14   5.5081762044643774e-14   4.8752708779541043e-14   4.5986070584876346e-14   4.5476003231472615e-14   4.4382704912170071e-14   4.1601532944761532e-14   4.0789361317421041e-14   3.7281904688523798e-14   3.6786621893293407e-14   3.2687356769879928e-14   3.2503406439443808e-14   2.7993824904062569e-14   2.8107188374804636e-14   2.3381756942022040e-14   2.3766312042459268e-14   1.9028382895184256e-14   1.9647692240841433e-14   1.5101001980564161e-14   1.5909590950109883e-14   1.1750542981624956e-14   1.2695660796043780e-14   9.1057637837065537e-15   1.0129410837956985e-14   7.2683030500869763e-15   8.3094610203584258e-15   6.3087743543972655e-15   7.3057516455018336e-15   6.2640526332678634e-15   7.1568553773523139e-15   7.1358571859817741e-15   7.8684948369639427e-15   8.8906856662651445e-15   9.4133226756445861e-15   1.1461101607788461e-14   1.1731972530927218e-14   1.4748326011797243e-14   1.4735340458982551e-14   1.8626033413205550e-14   1.8308009162544245e-14   2.2945206554093272e-14   2.2312683418745977e-14   2.7539863115658691e-14   2.6595466254294312e-14   3.2233434444679465e-14   3.0991773094062075e-14   3.6845551092126592e-14   3.5332656582181697e-14   4.1198974364659561e-14   3.9451298914802168e-14   4.5126405907410401e-14   4.3189422203334648e-14   4.8476916990668664e-14   4.6403369060161084e-14   5.1121712524919515e-14   4.8969626247488596e-14   5.2959191887264048e-14   5.0789537758310088e-14   5.3917978311835672e-14   5.1793276424294300e-14   5.3964164315919392e-14   5.1941578025701660e-14   5.3067527062026282e-14   5.1232150495707764e-14   5.0271433163260562e-14   4.9699643976608009e-14   4.2730521639190388e-14   3.9921664016504793e-14   3.9494335004053148e-14   3.8197331275050022e-14   3.5842420288084368e-14   3.4794262113558665e-14   3.1923601686688114e-14   3.1167082723567572e-14   2.7891786717770372e-14   2.7430918075621991e-14   2.3901280600693312e-14   2.3731657805517784e-14   2.0105566053735039e-14   2.0210941097868906e-14   1.6650493787846547e-14   1.7004162024966721e-14   1.3668840902996269e-14   1.4234541425068989e-14   1.1275190386529504e-14   1.2008515980914252e-14   9.5615293009311587e-15   1.0411629694213781e-14   8.5937132628065967e-15   9.5052497344599723e-15   8.4089354954480578e-15   9.3242078010271739e-15   9.0142974624751933e-15   9.8754614504748133e-15   1.0386535959808207e-14   1.1137826615234752e-14   1.2472917122254304e-14   1.3062791637712941e-14   1.5193262973450204e-14   1.5576381516197731e-14   1.8443032636903019e-14   1.8582000706176826e-14   2.2097339796137353e-14   2.1964145218508353e-14   2.6015752014611894e-14   2.5592841353020131e-14   3.0047687465049592e-14   2.9328640477291170e-14   3.4038201641859252e-14   3.3027977890739171e-14   3.7833941556685823e-14   3.6548689804765075e-14   4.1289038454746987e-14   3.9755476344427254e-14   4.4270711307399697e-14   4.2525100694152633e-14   4.6664369365925831e-14   4.4751123565006671e-14   4.8377988997068183e-14   4.6347996992151061e-14   4.9345757417688804e-14   4.7254326029848898e-14   4.9529842543804561e-14   4.7435387884024467e-14   4.8925570660403952e-14   4.6883664279957743e-14   4.7528855487718377e-14   4.5623408804206027e-14   4.4469052916421865e-14   4.3713183312909092e-14   3.6353593605424436e-14   3.3586435481419397e-14   3.3261402924656862e-14   3.1821728062610333e-14   2.9944076165531910e-14   2.8714443369033984e-14   2.6541446405559789e-14   2.5570018095001173e-14   2.3187005366102927e-14   2.2486505435362768e-14   2.0009154395182384e-14   1.9584223837170662e-14   1.7130141699290730e-14   1.6974223705357151e-14   1.4660590145572695e-14   1.4756877611077894e-14   1.2695405768777125e-14   1.3017385347217552e-14   1.1310108780604044e-14   1.1822597626312924e-14   1.0557935243624498e-14   1.1218428986004221e-14   1.0467790855634564e-14   1.1228097068067274e-14   1.1043140048399269e-14   1.1851230173852035e-14   1.2261872772887283e-14   1.3063881632911263e-14   1.4077154134775374e-14   1.4819450016454551e-14   1.6419224213096882e-14   1.7050469959506332e-14   1.9198078883621567e-14   1.9671204779294702e-14   2.2306928616935445e-14   2.2580941256991513e-14   2.5626302321927317e-14   2.5667859960508578e-14   2.9028638517651330e-14   2.8813332366461432e-14   3.2383187372643961e-14   3.1896479637121987e-14   3.5561035186980581e-14   3.4798817844426941e-14   3.8440058127450520e-14   3.7408811115684351e-14   4.0909614790925385e-14   3.9626157681046782e-14   4.2874796496942125e-14   4.1365644216966549e-14   4.4260075609832493e-14   4.2560419680032385e-14   4.5012189185654507e-14   4.3164567791554481e-14   4.5102278134736728e-14   4.3154851641735186e-14   4.4526338910435721e-14   4.2531741367083698e-14   4.3308381770338573e-14   4.1318740014506471e-14   4.1469141806396717e-14   3.9565110498805237e-14   3.8238097536838815e-14   3.7349964857914065e-14   2.9867343434192035e-14   2.7223828800087382e-14   2.7016246669417546e-14   2.5500954441282123e-14   2.4132164309150539e-14   2.2783612319395964e-14   2.1341182079852255e-14   2.0210684654906782e-14   1.8752808683856771e-14   1.7860422193486264e-14   1.6466088500021197e-14   1.5824503095500286e-14   1.4568998169834166e-14   1.4180742221765925e-14   1.3134429480926562e-14   1.2992364412914198e-14   1.2217515683762275e-14   1.2305028292424860e-14   1.1853492844838714e-14   1.2145150497313789e-14   1.2056350045255688e-14   1.2518874904245752e-14   1.2818291513769696e-14   1.3411839469142226e-14   1.4110036297009405e-14   1.4789727930405124e-14   1.5881943475896893e-14   1.6599588725551272e-14   1.8065919803377175e-14   1.8771869898677783e-14   2.0578036460466046e-14   2.1223091927584439e-14   2.3321754368164144e-14   2.3859055767577604e-14   2.6191634103215109e-14   2.6578462838108616e-14   2.9077387839025685e-14   2.9276807837610966e-14   3.1868117587822221e-14   3.1850394785693865e-14   3.4456576849229600e-14   3.4200321951633260e-14   3.6743291869028715e-14   3.6236282525991884e-14   3.8640384075803917e-14   3.7880034970643297e-14   4.0074946844740548e-14   3.9068409675538979e-14   4.0991846417613812e-14   3.9755736482775064e-14   4.1355842367572740e-14   3.9915599321777637e-14   4.1152928306355316e-14   3.9541854359773201e-14   4.0390942366247481e-14   3.8648850987006322e-14   3.9098711084328780e-14   3.7270989078124594e-14   3.7327249805165095e-14   3.5460883617854459e-14   3.5120624724830619e-14   3.3290345734522724e-14   3.1815843879215324e-14   3.0855007542155787e-14   2.3521184374559433e-14   2.1078344761430263e-14   2.0998928637255600e-14   1.9477930617071631e-14   1.8630146869034446e-14   1.7229693849475495e-14   1.6522840086978054e-14   1.5295020943506482e-14   1.4759781967433042e-14   1.3730415127717817e-14   1.3408393433454970e-14   1.2596946761295182e-14   1.2520686312708023e-14   1.1937820279069517e-14   1.2130764920214725e-14   1.1778407371238039e-14   1.2253616870021016e-14   1.2124825043579403e-14   1.2884520949832794e-14   1.2963762612650691e-14   1.3999231905269968e-14   1.4262980145495177e-14   1.5554911941442912e-14   1.5972549516567630e-14   1.7491777106803116e-14   1.8026772866362059e-14   1.9735394764062080e-14   2.0346707470676383e-14   2.2199543982029672e-14   2.2843199488645573e-14   2.4789528934417371e-14   2.5420310098192478e-14   2.7405817981160596e-14   2.7979002356879762e-14   2.9947868581584578e-14   3.0420947113750995e-14   3.2317991047350060e-14   3.2652301716844904e-14   3.4425102644930282e-14   3.4587316301806360e-14   3.6188227769933935e-14   3.6151629073895844e-14   3.7539609675465297e-14   3.7285123945721156e-14   3.8427314163092307e-14   3.7944240716591667e-14   3.8817225252357083e-14   3.8103649018404291e-14   3.8694355916207872e-14   3.7757221781223593e-14   3.8063425686681544e-14   3.6918270493493546e-14   3.6948669312269784e-14   3.5619035957820334e-14   3.5392957533992719e-14   3.3909438345975427e-14   3.3455700010982232e-14   3.1855242609932687e-14   3.1212235296638889e-14   2.9535152075861467e-14   2.8727495392130031e-14   2.7040198929901952e-14   2.5449770136330420e-14   2.4477847058961426e-14   1.7559046295138690e-14   1.5386144917023042e-14   1.5440711357213617e-14   1.3984124479305217e-14   1.3649449925603659e-14   1.2266128882111486e-14   1.2271561914285268e-14   1.1011935285932735e-14   1.1361348003363194e-14   1.0255200529271103e-14   1.0953550155973092e-14   1.0025593068640331e-14   1.1063899186742185e-14   1.0331658122236801e-14   1.1688146382225397e-14   1.1161663343138332e-14   1.2802304540473979e-14   1.2483704555270818e-14   1.4363557236217609e-14   1.4246977735038028e-14   1.6311906515184032e-14   1.6383721214851955e-14   1.8572478378162114e-14   1.8811821222222796e-14   2.1058400272656104e-14   2.1437967211873854e-14   2.3674139579284239e-14   2.4161237819726135e-14   2.6319174878511440e-14   2.6876979230717552e-14   2.8891858919756081e-14   2.9480826973975769e-14   3.1293324847466379e-14   3.1872716584962131e-14   3.3431285572473391e-14   3.3960729013333292e-14   3.5223580278548546e-14   3.5664623002068346e-14   3.6601331773648439e-14   3.6918918693100002e-14   3.7511593346254300e-14   3.7675413958253849e-14   3.7919383414587396e-14   3.7905036756881371e-14   3.7809029786714203e-14   3.7598962340435640e-14   3.7184771935591039e-14   3.6768952376575757e-14   3.6070598012732901e-14   3.5446903012524983e-14   3.4509324235518410e-14   3.3683619050747965e-14   3.2560942323861515e-14   3.1546863140171847e-14   3.0300348410307315e-14   2.9118744417578496e-14   2.7814120004468746e-14   2.6492624307649644e-14   2.5198306987551934e-14   2.3769270020215493e-14   2.2535453063970652e-14   2.1054869795021054e-14   1.9384447479506447e-14   1.8463575933435548e-14   1.2210068845042648e-14   1.0365973871874225e-14   1.0555206931691593e-14   9.2306623592967522e-15   9.3814809151079913e-15   8.0836682628247541e-15   8.7507226324838057e-15   7.5260257131259747e-15   8.6881102815674365e-15   7.5683284562699130e-15   9.1959017003788953e-15   8.2092566285333611e-15   1.0254624475029032e-14   9.4239787793746518e-15   1.1823586592949085e-14   1.1165832856587024e-14   1.3842495130545394e-14   1.3367874809945262e-14   1.6233764595512531e-14   1.5945482146402654e-14   1.8905499945577276e-14   1.8799598752021447e-14   2.1755027891334286e-14   2.1820542576008221e-14   2.4672842643241262e-14   2.4892220435118620e-14   2.7546814175767492e-14   2.7896589448232522e-14   3.0266497327166100e-14   3.0718193361741329e-14   3.2727376139347156e-14   3.3248599474051172e-14   3.4834880334622383e-14   3.5390565640651278e-14   3.6508019580373113e-14   3.7061777228428153e-14   3.7682495879596963e-14   3.8198010410699979e-14   3.8313174481132621e-14   3.8755600241432351e-14   3.8375818355311230e-14   3.8713118663406147e-14   3.7868019587149693e-14   3.8072197967720933e-14   3.6809291905543977e-14   3.6857468064349563e-14   3.5240320831030243e-14   3.5115609979460846e-14   3.3221400180031649e-14   3.2913561977382611e-14   3.0830115751126234e-14   3.0335947154473547e-14   2.8158358993641446e-14   2.7481822385866538e-14   2.5308815660058616e-14   2.4460867461664843e-14   2.2390774326492160e-14   2.1389211829528251e-14   1.9516588675194462e-14   1.8384814630991992e-14   1.6782472745743458e-14   1.5564371806498858e-14   1.3852992436245692e-14   1.3043321451326158e-14   7.6798168895700945e-15   6.2107518892686958e-15   6.5301691964498762e-15   5.4002179940770260e-15   5.9902574729043106e-15   4.8430436619174243e-15   6.0956253596503572e-15   4.9712550153783885e-15   6.8427985263877035e-15   5.7730541122761535e-15   8.2029924776278447e-15   7.2177379829666708e-15   1.0123961382357232e-14   9.2496636210318686e-15   1.2531879972861275e-14   1.1790755561258955e-14   1.5334213986294963e-14   1.4743357568383784e-14   1.8423271295144933e-14   1.7994003175586667e-14   2.1680341217317608e-14   2.1417771792263511e-14   2.4980256391798752e-14   2.4883089932219127e-14   2.8196202913283687e-14   2.8256787363313284e-14   3.1204593727974344e-14   3.1409214777759693e-14   3.3889818017531704e-14   3.4219226138592460e-14   3.6148684056120423e-14   3.6578834254903326e-14   3.7894384803907836e-14   3.8397360667761645e-14   3.9059833843395483e-14   3.9604920369659501e-14   3.9600243461449800e-14   4.0155107441923886e-14   3.9494845804830273e-14   4.0026778403675556e-14   3.8747690968149121e-14   3.9224864740227918e-14   3.7387491350640774e-14   3.7780183387415759e-14   3.5466518269886975e-14   3.5748252457701071e-14   3.3058593251179195e-14   3.3207157723200218e-14   3.0256251150746941e-14   3.0254551849750003e-14   2.7167184436866576e-14   2.7003901690057443e-14   2.3910101903510342e-14   2.3580128302226567e-14   2.0610176181435282e-14   2.0114804568080096e-14   1.7394077846799571e-14   1.6741124787689194e-14   1.4385428982447231e-14   1.3588707388200625e-14   1.1689644860561228e-14   1.0779703297163072e-14   9.0679775414700541e-15   8.4253838768035369e-15   4.1423879560577515e-15   3.0801604746332312e-15   3.5202814189858572e-15   2.6399934592379520e-15   3.6061040157000620e-15   2.6687915762582022e-15   4.4083040710855636e-15   3.4458024503608475e-15   5.8963265394666164e-15   4.9383691890891536e-15   8.0129789903529463e-15   7.0891405307795403e-15   1.0676930941879788e-14   9.8154112175476307e-15   1.3785807006188181e-14   1.3012415761800086e-14   1.7220134989081378e-14   1.6557293573962730e-14   2.0847935599428297e-14   2.0313817114489596e-14   2.4529794512393790e-14   2.4137625240190977e-14   2.8124219963311406e-14   2.7881771162157733e-14   3.1493080190722132e-14   3.1402369460678455e-14   3.4506911764699071e-14   3.4564125521771537e-14   3.7049894794314330e-14   3.7245534828592587e-14   3.9024303820200811e-14   3.9343552310907366e-14   4.0354263347046193e-14   4.0777552309191895e-14   4.0988663693206388e-14   4.1492426972903821e-14   4.0903125103505739e-14   4.1460704023793541e-14   4.0100934647364758e-14   4.0683602499215135e-14   3.8612919898440182e-14   3.9190985904931741e-14   3.6496264254159018e-14   3.7040214577709503e-14   3.3832309424511322e-14   3.4313941361931937e-14   3.0723429542692905e-14   3.1116935315476079e-14   2.7289097017713355e-14   2.7572055500429805e-14   2.3661291373262536e-14   2.3815529624972039e-14   1.9979426176655627e-14   1.9991719063189237e-14   1.6384994352889753e-14   1.6247571015747827e-14   1.3016051323481811e-14   1.2726985731532330e-14   1.0002018265375973e-14   9.5652601180435338e-15   7.4526878194402050e-15   6.8847374106709313e-15   5.2132919110882253e-15   4.7872296358262927e-15   1.7337243626490283e-15   1.0945056024453015e-15   1.6412135663689141e-15   1.0560626835693837e-15   2.3206432690347711e-15   1.6444679476305106e-15   3.7536018240047949e-15   3.0082908791484405e-15   5.8850664513903467e-15   5.0963504553249200e-15   8.6331629383538811e-15   7.8284062115411861e-15   1.1892282454513556e-14   1.1099480049302254e-14   1.5537179654645514e-14   1.4783865525294499e-14   1.9427782977013007e-14   1.8739974067101877e-14   2.3414578778899795e-14   2.2815774620242516e-14   2.7344356734069118e-14   2.6854636486447409e-14   3.1066097690209977e-14   3.0701348492252570e-14   3.4436777228667776e-14   3.4208083672071327e-14   3.7326862015883576e-14   3.7240080171601915e-14   3.962528