<?xml version="1.0"?>
<VTKFile type="UnstructuredGrid"  version="0.1"  >
<UnstructuredGrid>
<Piece  NumberOfPoints="25" NumberOfCells="32">
<Points>
<DataArray  type="Float64"  NumberOfComponents="3"  format="ascii">0 0 0  0.25 0 0  0.5 0 0  0.75 0 0  1 0 0  0 0.25 0  0.25 0.25 0  0.5 0.25 0  0.75 0.25 0  1 0.25 0  0 0.5 0  0.25 0.5 0  0.5 0.5 0  0.75 0.5 0  1 0.5 0  0 0.75 0  0.25 0.75 0  0.5 0.75 0  0.75 0.75 0  1 0.75 0  0 1 0  0.25 1 0  0.5 1 0  0.75 1 0  1 1 0  </DataArray>
</Points>
<Cells>
<DataArray  type="UInt32"  Name="connectivity"  format="ascii">0 1 6  0 5 6  1 2 7  1 6 7  2 3 8  2 7 8  3 4 9  3 8 9  5 6 11  5 10 11  6 7 12  6 11 12  7 8 13  7 12 13  8 9 14  8 13 14  10 11 16  10 15 16  11 12 17  11 16 17  12 13 18  12 17 18  13 14 19  13 18 19  15 16 21  15 20 21  16 17 22  16 21 22  17 18 23  17 22 23  18 19 24  18 23 24  </DataArray>
<DataArray  type="UInt32"  Name="offsets"  format="ascii">3 6 9 12 15 18 21 24 27 30 33 36 39 42 45 48 51 54 57 60 63 66 69 72 75 78 81 84 87 90 93 96 </DataArray>
<DataArray  type="UInt8"  Name="types"  format="ascii">5 5 5 5 5 5 5 5 5 5 5 5 5 5 5 5 5 5 5 5 5 5 5 5 5 5 5 5 5 5 5 5 </DataArray>
</Cells>
<CellData  Scalars="f_51"> 
<DataArray  type="Float64"  Name="f_51"  format="ascii">2.5376230503226267e-08   1.7051186085169584e-08   6.0041379988108283e-09   3.1508575443858620e-09   5.5887605641258587e-09   5.3467408122487366e-09   2.4674010190980958e-08   1.5818867751628309e-08   3.0870441650150557e-08   1.6964698962061031e-10   3.4784107881315798e-08   1.3982625526342844e-08   2.1134056581606598e-08   3.2491365631866432e-08   1.4463498060010837e-08   1.7707943090572545e-08   1.7571796662108980e-08   1.4135390222314675e-08   3.2392533746726721e-08   2.1049010711335895e-08   1.3999773172881287e-08   3.4667451947605031e-08   1.4988019491230923e-10   3.0718555290902328e-08   1.5593658797397701e-08   2.4674010190981018e-08   5.4840592315677255e-09   5.6916594475914664e-09   3.1768808815123911e-09   6.0705890652285927e-09   1.6874677100712297e-08   2.5412602910253186e-08   </DataArray> 
</CellData> 
</Piece>
</UnstructuredGrid>
</VTKFile>