<?xml version="1.0"?>
<VTKFile type="UnstructuredGrid"  version="0.1"  >
<UnstructuredGrid>
<Piece  NumberOfPoints="4225" NumberOfCells="8192">
<Points>
<DataArray  type="Float64"  NumberOfComponents="3"  format="ascii">0 0 0  0.015625 0 0  0.03125 0 0  0.046875 0 0  0.0625 0 0  0.078125 0 0  0.09375 0 0  0.109375 0 0  0.125 0 0  0.140625 0 0  0.15625 0 0  0.171875 0 0  0.1875 0 0  0.203125 0 0  0.21875 0 0  0.234375 0 0  0.25 0 0  0.265625 0 0  0.28125 0 0  0.296875 0 0  0.3125 0 0  0.328125 0 0  0.34375 0 0  0.359375 0 0  0.375 0 0  0.390625 0 0  0.40625 0 0  0.421875 0 0  0.4375 0 0  0.453125 0 0  0.46875 0 0  0.484375 0 0  0.5 0 0  0.515625 0 0  0.53125 0 0  0.546875 0 0  0.5625 0 0  0.578125 0 0  0.59375 0 0  0.609375 0 0  0.625 0 0  0.640625 0 0  0.65625 0 0  0.671875 0 0  0.6875 0 0  0.703125 0 0  0.71875 0 0  0.734375 0 0  0.75 0 0  0.765625 0 0  0.78125 0 0  0.796875 0 0  0.8125 0 0  0.828125 0 0  0.84375 0 0  0.859375 0 0  0.875 0 0  0.890625 0 0  0.90625 0 0  0.921875 0 0  0.9375 0 0  0.953125 0 0  0.96875 0 0  0.984375 0 0  1 0 0  0 0.015625 0  0.015625 0.015625 0  0.03125 0.015625 0  0.046875 0.015625 0  0.0625 0.015625 0  0.078125 0.015625 0  0.09375 0.015625 0  0.109375 0.015625 0  0.125 0.015625 0  0.140625 0.015625 0  0.15625 0.015625 0  0.171875 0.015625 0  0.1875 0.015625 0  0.203125 0.015625 0  0.21875 0.015625 0  0.234375 0.015625 0  0.25 0.015625 0  0.265625 0.015625 0  0.28125 0.015625 0  0.296875 0.015625 0  0.3125 0.015625 0  0.328125 0.015625 0  0.34375 0.015625 0  0.359375 0.015625 0  0.375 0.015625 0  0.390625 0.015625 0  0.40625 0.015625 0  0.421875 0.015625 0  0.4375 0.015625 0  0.453125 0.015625 0  0.46875 0.015625 0  0.484375 0.015625 0  0.5 0.015625 0  0.515625 0.015625 0  0.53125 0.015625 0  0.546875 0.015625 0  0.5625 0.015625 0  0.578125 0.015625 0  0.59375 0.015625 0  0.609375 0.015625 0  0.625 0.015625 0  0.640625 0.015625 0  0.65625 0.015625 0  0.671875 0.015625 0  0.6875 0.015625 0  0.703125 0.015625 0  0.71875 0.015625 0  0.734375 0.015625 0  0.75 0.015625 0  0.765625 0.015625 0  0.78125 0.015625 0  0.796875 0.015625 0  0.8125 0.015625 0  0.828125 0.015625 0  0.84375 0.015625 0  0.859375 0.015625 0  0.875 0.015625 0  0.890625 0.015625 0  0.90625 0.015625 0  0.921875 0.015625 0  0.9375 0.015625 0  0.953125 0.015625 0  0.96875 0.015625 0  0.984375 0.015625 0  1 0.015625 0  0 0.03125 0  0.015625 0.03125 0  0.03125 0.03125 0  0.046875 0.03125 0  0.0625 0.03125 0  0.078125 0.03125 0  0.09375 0.03125 0  0.109375 0.03125 0  0.125 0.03125 0  0.140625 0.03125 0  0.15625 0.03125 0  0.171875 0.03125 0  0.1875 0.03125 0  0.203125 0.03125 0  0.21875 0.03125 0  0.234375 0.03125 0  0.25 0.03125 0  0.265625 0.03125 0  0.28125 0.03125 0  0.296875 0.03125 0  0.3125 0.03125 0  0.328125 0.03125 0  0.34375 0.03125 0  0.359375 0.03125 0  0.375 0.03125 0  0.390625 0.03125 0  0.40625 0.03125 0  0.421875 0.03125 0  0.4375 0.03125 0  0.453125 0.03125 0  0.46875 0.03125 0  0.484375 0.03125 0  0.5 0.03125 0  0.515625 0.03125 0  0.53125 0.03125 0  0.546875 0.03125 0  0.5625 0.03125 0  0.578125 0.03125 0  0.59375 0.03125 0  0.609375 0.03125 0  0.625 0.03125 0  0.640625 0.03125 0  0.65625 0.03125 0  0.671875 0.03125 0  0.6875 0.03125 0  0.703125 0.03125 0  0.71875 0.03125 0  0.734375 0.03125 0  0.75 0.03125 0  0.765625 0.03125 0  0.78125 0.03125 0  0.796875 0.03125 0  0.8125 0.03125 0  0.828125 0.03125 0  0.84375 0.03125 0  0.859375 0.03125 0  0.875 0.03125 0  0.890625 0.03125 0  0.90625 0.03125 0  0.921875 0.03125 0  0.9375 0.03125 0  0.953125 0.03125 0  0.96875 0.03125 0  0.984375 0.03125 0  1 0.03125 0  0 0.046875 0  0.015625 0.046875 0  0.03125 0.046875 0  0.046875 0.046875 0  0.0625 0.046875 0  0.078125 0.046875 0  0.09375 0.046875 0  0.109375 0.046875 0  0.125 0.046875 0  0.140625 0.046875 0  0.15625 0.046875 0  0.171875 0.046875 0  0.1875 0.046875 0  0.203125 0.046875 0  0.21875 0.046875 0  0.234375 0.046875 0  0.25 0.046875 0  0.265625 0.046875 0  0.28125 0.046875 0  0.296875 0.046875 0  0.3125 0.046875 0  0.328125 0.046875 0  0.34375 0.046875 0  0.359375 0.046875 0  0.375 0.046875 0  0.390625 0.046875 0  0.40625 0.046875 0  0.421875 0.046875 0  0.4375 0.046875 0  0.453125 0.046875 0  0.46875 0.046875 0  0.484375 0.046875 0  0.5 0.046875 0  0.515625 0.046875 0  0.53125 0.046875 0  0.546875 0.046875 0  0.5625 0.046875 0  0.578125 0.046875 0  0.59375 0.046875 0  0.609375 0.046875 0  0.625 0.046875 0  0.640625 0.046875 0  0.65625 0.046875 0  0.671875 0.046875 0  0.6875 0.046875 0  0.703125 0.046875 0  0.71875 0.046875 0  0.734375 0.046875 0  0.75 0.046875 0  0.765625 0.046875 0  0.78125 0.046875 0  0.796875 0.046875 0  0.8125 0.046875 0  0.828125 0.046875 0  0.84375 0.046875 0  0.859375 0.046875 0  0.875 0.046875 0  0.890625 0.046875 0  0.90625 0.046875 0  0.921875 0.046875 0  0.9375 0.046875 0  0.953125 0.046875 0  0.96875 0.046875 0  0.984375 0.046875 0  1 0.046875 0  0 0.0625 0  0.015625 0.0625 0  0.03125 0.0625 0  0.046875 0.0625 0  0.0625 0.0625 0  0.078125 0.0625 0  0.09375 0.0625 0  0.109375 0.0625 0  0.125 0.0625 0  0.140625 0.0625 0  0.15625 0.0625 0  0.171875 0.0625 0  0.1875 0.0625 0  0.203125 0.0625 0  0.21875 0.0625 0  0.234375 0.0625 0  0.25 0.0625 0  0.265625 0.0625 0  0.28125 0.0625 0  0.296875 0.0625 0  0.3125 0.0625 0  0.328125 0.0625 0  0.34375 0.0625 0  0.359375 0.0625 0  0.375 0.0625 0  0.390625 0.0625 0  0.40625 0.0625 0  0.421875 0.0625 0  0.4375 0.0625 0  0.453125 0.0625 0  0.46875 0.0625 0  0.484375 0.0625 0  0.5 0.0625 0  0.515625 0.0625 0  0.53125 0.0625 0  0.546875 0.0625 0  0.5625 0.0625 0  0.578125 0.0625 0  0.59375 0.0625 0  0.609375 0.0625 0  0.625 0.0625 0  0.640625 0.0625 0  0.65625 0.0625 0  0.671875 0.0625 0  0.6875 0.0625 0  0.703125 0.0625 0  0.71875 0.0625 0  0.734375 0.0625 0  0.75 0.0625 0  0.765625 0.0625 0  0.78125 0.0625 0  0.796875 0.0625 0  0.8125 0.0625 0  0.828125 0.0625 0  0.84375 0.0625 0  0.859375 0.0625 0  0.875 0.0625 0  0.890625 0.0625 0  0.90625 0.0625 0  0.921875 0.0625 0  0.9375 0.0625 0  0.953125 0.0625 0  0.96875 0.0625 0  0.984375 0.0625 0  1 0.0625 0  0 0.078125 0  0.015625 0.078125 0  0.03125 0.078125 0  0.046875 0.078125 0  0.0625 0.078125 0  0.078125 0.078125 0  0.09375 0.078125 0  0.109375 0.078125 0  0.125 0.078125 0  0.140625 0.078125 0  0.15625 0.078125 0  0.171875 0.078125 0  0.1875 0.078125 0  0.203125 0.078125 0  0.21875 0.078125 0  0.234375 0.078125 0  0.25 0.078125 0  0.265625 0.078125 0  0.28125 0.078125 0  0.296875 0.078125 0  0.3125 0.078125 0  0.328125 0.078125 0  0.34375 0.078125 0  0.359375 0.078125 0  0.375 0.078125 0  0.390625 0.078125 0  0.40625 0.078125 0  0.421875 0.078125 0  0.4375 0.078125 0  0.453125 0.078125 0  0.46875 0.078125 0  0.484375 0.078125 0  0.5 0.078125 0  0.515625 0.078125 0  0.53125 0.078125 0  0.546875 0.078125 0  0.5625 0.078125 0  0.578125 0.078125 0  0.59375 0.078125 0  0.609375 0.078125 0  0.625 0.078125 0  0.640625 0.078125 0  0.65625 0.078125 0  0.671875 0.078125 0  0.6875 0.078125 0  0.703125 0.078125 0  0.71875 0.078125 0  0.734375 0.078125 0  0.75 0.078125 0  0.765625 0.078125 0  0.78125 0.078125 0  0.796875 0.078125 0  0.8125 0.078125 0  0.828125 0.078125 0  0.84375 0.078125 0  0.859375 0.078125 0  0.875 0.078125 0  0.890625 0.078125 0  0.90625 0.078125 0  0.921875 0.078125 0  0.9375 0.078125 0  0.953125 0.078125 0  0.96875 0.078125 0  0.984375 0.078125 0  1 0.078125 0  0 0.09375 0  0.015625 0.09375 0  0.03125 0.09375 0  0.046875 0.09375 0  0.0625 0.09375 0  0.078125 0.09375 0  0.09375 0.09375 0  0.109375 0.09375 0  0.125 0.09375 0  0.140625 0.09375 0  0.15625 0.09375 0  0.171875 0.09375 0  0.1875 0.09375 0  0.203125 0.09375 0  0.21875 0.09375 0  0.234375 0.09375 0  0.25 0.09375 0  0.265625 0.09375 0  0.28125 0.09375 0  0.296875 0.09375 0  0.3125 0.09375 0  0.328125 0.09375 0  0.34375 0.09375 0  0.359375 0.09375 0  0.375 0.09375 0  0.390625 0.09375 0  0.40625 0.09375 0  0.421875 0.09375 0  0.4375 0.09375 0  0.453125 0.09375 0  0.46875 0.09375 0  0.484375 0.09375 0  0.5 0.09375 0  0.515625 0.09375 0  0.53125 0.09375 0  0.546875 0.09375 0  0.5625 0.09375 0  0.578125 0.09375 0  0.59375 0.09375 0  0.609375 0.09375 0  0.625 0.09375 0  0.640625 0.09375 0  0.65625 0.09375 0  0.671875 0.09375 0  0.6875 0.09375 0  0.703125 0.09375 0  0.71875 0.09375 0  0.734375 0.09375 0  0.75 0.09375 0  0.765625 0.09375 0  0.78125 0.09375 0  0.796875 0.09375 0  0.8125 0.09375 0  0.828125 0.09375 0  0.84375 0.09375 0  0.859375 0.09375 0  0.875 0.09375 0  0.890625 0.09375 0  0.90625 0.09375 0  0.921875 0.09375 0  0.9375 0.09375 0  0.953125 0.09375 0  0.96875 0.09375 0  0.984375 0.09375 0  1 0.09375 0  0 0.109375 0  0.015625 0.109375 0  0.03125 0.109375 0  0.046875 0.109375 0  0.0625 0.109375 0  0.078125 0.109375 0  0.09375 0.109375 0  0.109375 0.109375 0  0.125 0.109375 0  0.140625 0.109375 0  0.15625 0.109375 0  0.171875 0.109375 0  0.1875 0.109375 0  0.203125 0.109375 0  0.21875 0.109375 0  0.234375 0.109375 0  0.25 0.109375 0  0.265625 0.109375 0  0.28125 0.109375 0  0.296875 0.109375 0  0.3125 0.109375 0  0.328125 0.109375 0  0.34375 0.109375 0  0.359375 0.109375 0  0.375 0.109375 0  0.390625 0.109375 0  0.40625 0.109375 0  0.421875 0.109375 0  0.4375 0.109375 0  0.453125 0.109375 0  0.46875 0.109375 0  0.484375 0.109375 0  0.5 0.109375 0  0.515625 0.109375 0  0.53125 0.109375 0  0.546875 0.109375 0  0.5625 0.109375 0  0.578125 0.109375 0  0.59375 0.109375 0  0.609375 0.109375 0  0.625 0.109375 0  0.640625 0.109375 0  0.65625 0.109375 0  0.671875 0.109375 0  0.6875 0.109375 0  0.703125 0.109375 0  0.71875 0.109375 0  0.734375 0.109375 0  0.75 0.109375 0  0.765625 0.109375 0  0.78125 0.109375 0  0.796875 0.109375 0  0.8125 0.109375 0  0.828125 0.109375 0  0.84375 0.109375 0  0.859375 0.109375 0  0.875 0.109375 0  0.890625 0.109375 0  0.90625 0.109375 0  0.921875 0.109375 0  0.9375 0.109375 0  0.953125 0.109375 0  0.96875 0.109375 0  0.984375 0.109375 0  1 0.109375 0  0 0.125 0  0.015625 0.125 0  0.03125 0.125 0  0.046875 0.125 0  0.0625 0.125 0  0.078125 0.125 0  0.09375 0.125 0  0.109375 0.125 0  0.125 0.12
[...]
<CellData  Scalars="f_220313"> 
<DataArray  type="Float64"  Name="f_220313"  format="ascii">7.7781399718464189e-11   7.7589724415711982e-11   7.7407440062825404e-11   7.7216595398411928e-11   7.6663003551864149e-11   7.6473910004206501e-11   7.5555258976595550e-11   7.5368813376313542e-11   7.4094874012987403e-11   7.3911944791987675e-11   7.2295912493212221e-11   7.2117332996996918e-11   7.0175698967781615e-11   7.0002260081662530e-11   6.7754651859082566e-11   6.7587094951528153e-11   6.5056086824296811e-11   6.4895096771359327e-11   6.2105992209618533e-11   6.1952191028572791e-11   5.8932778763661476e-11   5.8786719676377455e-11   5.5567006032039871e-11   5.5429168349891584e-11   5.2041088047620752e-11   5.1911872357700142e-11   4.8388981154499470e-11   4.8268705966146950e-11   4.4645857003303968e-11   4.4534755111891227e-11   4.0847763815365502e-11   4.0745980531477316e-11   3.7031279220596425e-11   3.6938870796983594e-11   3.3233157981741059e-11   3.3150091432380648e-11   2.9489978054403197e-11   2.9416130424948429e-11   2.5837788278839839e-11   2.5772949190134761e-11   2.2311761235798655e-11   2.2255633934717193e-11   1.8945854507800944e-11   1.8898059012687847e-11   1.5772483634967270e-11   1.5732560520555362e-11   1.2822209952674086e-11   1.2789624462049362e-11   1.0123446253275770e-11   1.0097593602333848e-11   7.7021831624261075e-12   7.6823943113392701e-12   5.5817388259299834e-12   5.5672869351224354e-12   3.7825343446685081e-12   3.7726417138537737e-12   2.3218971224989786e-12   2.3157425353139352e-12   1.2138939586401837e-12   1.2106208897067822e-12   4.6919561695548857e-13   4.6792013681314734e-13   9.4974019359191140e-14   9.4793538039516428e-14   9.4833205139497690e-14   9.4835013498371306e-14   4.6877462655695573e-13   4.6804476743593870e-13   1.2131970851739201e-12   1.2108290897645455e-12   2.3209314685524433e-12   2.3160351582559729e-12   3.7813097676289439e-12   3.7730198244727300e-12   5.5802678091544720e-12   5.5677520612577516e-12   7.7004807127102985e-12   7.6829482496169042e-12   1.0121529727816094e-11   1.0098238441285205e-11   1.2820098888177542e-11   1.2790362797352787e-11   1.5770199542818607e-11   1.5733395328053183e-11   1.8943420648559985e-11   1.8898993563875993e-11   2.2309202375977871e-11   2.2256671866866816e-11   2.5835130420362587e-11   2.5774094538373684e-11   2.9487248165017131e-11   2.9417387648429361e-11   3.3230383704678058e-11   3.3151465050011000e-11   3.7028488563111428e-11   3.6940366334869080e-11   4.0844984860138958e-11   4.0747602979461856e-11   4.4643117568507848e-11   4.4536509898419219e-11   4.8386308493125113e-11   4.8270598788320735e-11   5.2038508530147655e-11   5.1913909102372564e-11   5.5564544833952791e-11   5.5431354316882840e-11   5.8930459554634020e-11   5.8789060404337023e-11   6.2103836868691084e-11   6.1954691610699850e-11   6.5054115150384875e-11   6.4897761863040156e-11   6.7752881300989183e-11   6.7589928501881994e-11   7.0174144380152864e-11   7.0005265303347874e-11   7.2294585903449683e-11   7.2120511912344256e-11   7.4093784415564398e-11   7.3915298166629733e-11   7.5554412152776072e-11   7.5372340276705861e-11   7.6662401915235585e-11   7.6477607295713423e-11   7.7407082534756708e-11   7.7220456719546473e-11   7.7781281632785619e-11   7.7593738070648061e-11   7.7590753166298745e-11   7.7025702816259623e-11   7.7220581214623705e-11   7.6656361261670130e-11   7.6482633271147987e-11   7.5921955300371309e-11   7.5384007779651249e-11   7.4829549272964800e-11   7.3935280718000974e-11   7.3389658853890030e-11   7.2150401534133369e-11   7.1616147992957158e-11   7.0046557780434209e-11   6.9526094749177479e-11   6.7644009494327302e-11   6.7139626400182385e-11   6.4965893690084147e-11   6.4479725303332788e-11   6.2038001597026140e-11   6.1572007558093553e-11   5.8888530075620290e-11   5.8444476554976792e-11   5.5547810258439083e-11   5.5127252161982189e-11   5.2048014993631913e-11   5.1652281900789543e-11   4.8422849713832476e-11   4.8053032459938222e-11   4.4707226754738986e-11   4.4364167437439168e-11   4.0936930152142931e-11   4.0621213807680036e-11   3.7148270374580422e-11   3.6860219471554393e-11   3.3377735200967010e-11   3.3117405839163182e-11   2.9661636831573386e-11   2.9428819754274909e-11   2.6035764626597627e-11   2.5829985715379353e-11   2.2535038134880819e-11   2.2355563401441035e-11   1.9193171963748040e-11   1.9039015166229724e-11   1.6042350986392963e-11   1.5912282418802810e-11   1.3112919933365237e-11   1.3005478569961626e-11   1.0433091613782775e-11   1.0346599000429071e-11   8.0286749941265907e-12   7.9612515452194158e-12   5.9228266926693386e-12   5.8724097691333498e-12   4.1358279416146134e-12   4.1001914879658685e-12   2.6848890973969270e-12   2.6616654798440082e-12   1.5839844264684278e-12   1.5706866769444384e-12   8.4371680109233656e-13   8.3776307452810135e-13   4.7121625031986620e-13   4.6995424282899806e-13   4.7007079669946382e-13   4.7080365494184967e-13   8.4029220650497550e-13   8.4030426646671938e-13   1.5783157404822935e-12   1.5748987547086519e-12   2.6770345847228342e-12   2.6675138357812976e-12   4.1258681793772579e-12   4.1076281722877645e-12   5.9108641522981873e-12   5.8813739496944455e-12   8.0148327805399279e-12   7.9716702901936437e-12   1.0417512348971515e-11   1.0358387667295817e-11   1.3095764584213476e-11   1.3018542201725753e-11   1.6023797152679402e-11   1.5926516290782551e-11   1.9173412119688636e-11   1.9054305992470420e-11   2.2514277814987727e-11   2.2371790379187505e-11   2.6014220479932136e-11   2.5847021709039168e-11   2.9639534509938866e-11   2.9446532973325863e-11   3.3355306858868376e-11   3.3135660440321162e-11   3.7125753312401447e-11   3.6878877220792184e-11   4.0914562956926723e-11   4.0640135679792597e-11   4.4685247996707730e-11   4.4383214160343792e-11   4.8401495383591256e-11   4.8072066257736941e-11   5.2027516108429770e-11   5.1671167814174324e-11   5.5528389820884102e-11   5.5145858944467429e-11   5.8870401667316138e-11   5.8462677562586200e-11   6.2021366557024752e-11   6.1589682496130073e-11   6.4950939099582489e-11   6.4496760121040668e-11   6.7630905978459489e-11   6.7155914790505528e-11   7.0035457724845258e-11   6.9541538641039586e-11   7.2141437019557618e-11   7.1630657911511056e-11   7.3928562015094515e-11   7.3403154266479373e-11   7.5379621660508795e-11   7.4841958933760071e-11   7.6480641459900432e-11   7.5933216804021079e-11   7.7221018521445506e-11   7.6666420622328332e-11   7.7593624747588944e-11   7.7034512598715923e-11   7.7028533528415142e-11   7.6094643613597839e-11   7.6666626011368534e-11   7.5731753661755738e-11   7.5943155311149355e-11   7.5011810959745643e-11   7.4865079434594430e-11   7.3941740990048651e-11   7.3442775139387985e-11   7.2531843602094950e-11   7.1689936199957822e-11   7.0795693305498110e-11   6.9623440871422571e-11   6.8750007758395833e-11   6.7263188928837220e-11   6.6414486335991380e-11   6.4631909691240042e-11   6.3811620755564390e-11   6.1754943131206365e-11   6.0966477608165158e-11   5.8659996093210154e-11   5.7906457356693166e-11   5.5376874295019121e-11   5.4661030360838073e-11   5.1937196543155955e-11   5.1261452643391728e-11   4.8374089425127749e-11   4.7740465147149032e-11   4.4721868280477495e-11   4.4131978294926257e-11   4.1015707057681586e-11   4.0470745374953812e-11   3.7291299254010482e-11   3.6792027721635834e-11   3.3584513886108633e-11   3.3131255118056839e-11   2.9931050776575175e-11   2.9523684800846522e-11   2.6366096249534790e-11   2.6004061559398036e-11   2.2923983679040115e-11   2.2606283402803793e-11   1.9637864341854645e-11   1.9363074552789247e-11   1.6539386714556068e-11   1.6305671046550589e-11   1.3658392204750313e-11   1.3463519287380596e-11   1.1022627727610784e-11   1.0863992831806595e-11   8.6574786152315753e-12   8.5321284460806384e-12   6.5857240992963418e-12   6.4903851070119343e-12   4.8273175436246608e-12   4.7584279974649116e-12   3.3991948545229591e-12   3.3529385756264452e-12   2.3151109647565862e-12   2.2874543367849807e-12   1.5855076000042623e-12   1.5722383177744114e-12   1.2174125299787294e-12   1.2141802499748955e-12   1.2143721179833197e-12   1.2167302234981723e-12   1.5764169507739370e-12   1.5798655022606536e-12   2.3000616949064112e-12   2.3000906941608950e-12   3.3783385799615859e-12   3.3704714319004048e-12   4.8008645511373027e-12   4.7807012234299978e-12   6.5539412966394994e-12   6.5172006364090050e-12   8.6206870981516205e-12   8.5632481607495514e-12   1.0981199358393490e-11   1.0899141125121250e-11   1.3612746623031567e-11   1.3502385622904504e-11   1.6489986876667330e-11   1.6347912978440970e-11   1.9585212216129136e-11   1.9408321244583220e-11   2.2868615347864770e-11   2.2654139209649817e-11   2.6308576725332535e-11   2.6054109856142519e-11   2.9871968975669764e-11   2.9575491890355586e-11   3.3524476136709875e-11   3.3184374629368790e-11   3.7230923875801126e-11   3.6846004741838671e-11   4.0955618495516830e-11   4.0525120933955970e-11   4.4662690244368384e-11   4.4186293389529487e-11   4.8316439214585004e-11   4.7794265237069786e-11   5.1881678975911724e-11   5.1314291758504379e-11   5.5324075342221295e-11   5.4712475170684323e-11   5.8610476784268572e-11   5.7956091196396922e-11   6.1709234508301346e-11   6.1013903704651746e-11   6.4590506290248101e-11   6.3856466102380935e-11   6.7226544286725427e-11   6.6456404504261568e-11   6.9591962444908137e-11   6.8788681645191724e-11   7.1663980676811350e-11   7.0830837805421434e-11   7.3422644314623488e-11   7.2563207231075634e-11   7.4851016661069288e-11   7.3969107492558033e-11   7.5935341818961090e-11   7.5035000583036357e-11   7.6665177915357788e-11   7.5750623189463368e-11   7.7033498084242382e-11   7.6109085926314452e-11   7.6100150297746088e-11   7.4805501051420654e-11   7.5750893672261370e-11   7.4451660414251017e-11   7.5049746825103585e-11   7.3752223963076462e-11   7.4003453315680219e-11   7.2713920015588789e-11   7.2622083201813300e-11   7.1346742374223422e-11   7.0918935549458843e-11   6.9663853544047574e-11   6.8910409567400090e-11   6.7681457869565877e-11   6.6615846223907844e-11   6.5418645063747235e-11   6.4057342327929227e-11   6.2897206240442392e-11   6.1259536870757024e-11   6.0141423754069245e-11   5.8249374099446593e-11   5.7177837760855631e-11   5.5055843951705247e-11   5.4034989803293088e-11   5.1709702448687732e-11   5.0743148543644184e-11   4.8243175778125400e-11   4.7334017364715136e-11   4.4689649754614888e-11   4.3840430119418653e-11   4.1083348306085625e-11   4.0296033937791976e-11   3.7459003711880203e-11   3.6734965526740060e-11   3.3851522115569279e-11   3.3191522102310833e-11   3.0295647540813227e-11   2.9699831764407651e-11   2.6825627000115755e-11   2.6293523637033831e-11   2.3474880870314608e-11   2.3005405136998529e-11   2.0275680558467750e-11   1.9867145305266845e-11   1.7258838370424708e-11   1.6908969852514966e-11   1.4453410148683033e-11   1.4159370437865076e-11   1.1886415953186866e-11   1.1644829611015788e-11   9.5825794143818099e-12   9.3895665396456128e-12   7.5640897070649138e-12   7.4153031819145618e-12   5.8503881945344435e-12   5.7410552696676208e-12   4.4579807352762602e-12   4.3829492172331416e-12   3.4002789763955340e-12   3.3540668106760415e-12   2.6874711660623025e-12   2.6643191905259483e-12   2.3264239710337065e-12   2.3203514016409065e-12   2.3206164684026524e-12   2.3254784327404078e-12   2.6701065254800295e-12   2.6796533263684392e-12   3.3715302908329737e-12   3.3794675717354648e-12   4.4181346450301019e-12   4.4181839844860228e-12   5.7998422059881104e-12   5.7858016485496438e-12   7.5033483058655205e-12   7.4691520875687545e-12   9.5122493061772531e-12   9.4520262805380529e-12   1.1807200373808106e-11   1.1715330620437577e-11   1.4366101929837817e-11   1.4237270847404469e-11   1.7164312449011214e-11   1.6993562042928595e-11   2.0174885684973802e-11   1.9957662338397801e-11   2.3368830339799775e-11   2.3101028564109223e-11   2.6715388934966159e-11   2.6393391188839277e-11   3.0182334518418210e-11   2.9803045922449979e-11   3.3736280520043290e-11   3.3297158704850066e-11   3.7343002543332414e-11   3.6842082316778941e-11   4.0967767860108972e-11   4.0403679912726515e-11   4.4575669850612924e-11   4.3947654326151076e-11   4.8131964342012024e-11   4.7439877917402191e-11   5.1602403908627704e-11   5.0846721345383066e-11   5.4953567879982956e-11   5.4135377525655463e-11   5.8153184266965102e-11   5.7274177358751147e-11   6.1170440043765638e-11   6.0232894729310669e-11   6.3976278523655145e-11   6.2983037926482586e-11   6.6543678700922530e-11   6.5498123458262960e-11   6.8847915777909772e-11   6.7753931512878514e-11   7.0866799078496070e-11   6.9728738956839373e-11   7.2580885878986673e-11   7.1403528870302250e-11   7.3973668602317291e-11   7.2762173306223979e-11   7.5031734239241136e-11   7.3791589150738122e-11   7.5744893403338154e-11   7.4481863857525934e-11   7.6106278871987273e-11   7.4826351182920428e-11   7.4814532030381869e-11   7.3170674486458009e-11   7.4482186819235368e-11   7.2828391679855911e-11   7.3810994113107249e-11   7.2155306066196347e-11   7.2807409453773644e-11   7.1157892318358903e-11   7.1481091595934283e-11   6.9845750110923678e-11   6.9844808948805021e-11   6.8231511824934875e-11   6.7914316504432985e-11   6.6330720300818506e-11   6.5708203689913778e-11   6.4161679137882821e-11   6.3247715220602175e-11   6.1745276275060334e-11   6.0556546163706183e-11   5.9104782601988564e-11   5.7660614183680202e-11   5.6265627900676992e-11   5.4587809106853774e-11   5.3255155706306267e-11   5.1367724944094357e-11   5.0102359796138771e-11   4.8031373924835041e-11   4.6837605297712394e-11   4.4610888921790601e-11   4.3492335804086441e-11   4.1139213067856590e-11   4.0098770425648916e-11   3.7649782770455110e-11   3.6689593834890772e-11   3.4176205376115372e-11   3.3297641135427786e-11   3.0751936202434060e-11   2.9955581971846560e-11   2.7409955176700958e-11   2.6695605133738831e-11   2.4182450301549287e-11   2.3549109268684795e-11   2.1100506987196684e-11   2.0546400130920133e-11   1.8193808746008292e-11   1.7716398693696066e-11   1.5490351619697948e-11   1.5086362784021672e-11   1.3016173958191376e-11   1.2681624261858548e-11   1.0795106323119276e-11   1.0525345322030976e-11   8.8485415022981519e-12   8.6382952949384238e-12   7.1952286913977727e-12   7.0386505943011388e-12   5.8510928115582321e-12   5.7418197869469895e-12   4.8290812694305265e-12   4.7602950887436945e-12   4.1390391902425678e-12   4.1035321647864213e-12   3.7876145785381569e-12   3.7778589675668004e-12   3.7781944761150542e-12   3.7864148476234218e-12   4.1108720850787654e-12   4.1291204533021421e-12   4.7824460816130855e-12   4.8026782493829851e-12   5.7864514118419898e-12   5.8006045382852100e-12   7.1132215279561072e-12   7.1132917800948975e-12   8.7499814558432405e-12   8.7281011145910582e-12   1.0680970957937462e-11   1.0629484211034732e-11   1.2887596186416898e-11   1.2799132878837593e-11   1.5348608826170982e-11   1.5216155533693668e-11   1.8040310713325603e-11   1.7857278165783984e-11   2.0936781997402883e-11   2.0697068704518915e-11   2.4010130792027208e-11   2.3708181853280201e-11   2.7230761872379176e-11   2.6861622502638584e-11   3.0567661606038100e-11   3.0127024734260123e-11   3.3988696497886435e-11   3.3472944595293267e-11   3.7460922893327953e-11   3.6867162490710029e-11   4.0950903846444566e-11   4.0276993885460861e-11   4.4425031601505692e-11   4.3669603656280936e-11   4.7849850801302395e-11   4.7012322555731921e-11   5.1192380838676559e-11   5.0272961781814229e-11   5.4420433477469357e-11   5.3420122630563827e-11   5.7502922678665350e-11   5.6423499338491962e-11   6.0410163982378254e-11   5.9254170504418775e-11   6.3114160655589335e-11   6.1884877874134500e-11   6.5588872765622941e-11   6.4290288594600149e-11   6.7810468363732184e-11   6.6447239310312532e-11   6.9757552742639195e-11   6.8334959076103031e-11   7.1411374809117825e-11   6.9935269753715454e-11   7.2756007268673735e-11   7.1232760617885900e-11   7.3778500554635925e-11   7.2214937061271325e-11   7.4469007287712098e-11   7.2872340913419836e-11   7.4820877393564085e-11   7.3198641588346622e-11   7.3184044229801845e-11   7.1205890405470376e-11   7.2872706220282424e-11   7.0877561829984224e-11   7.2238808729418551e-11   7.0236417333532898e-11   7.1288448408433044e-11   6.9288624154441362e-11   7.0030771238253648e-11   6.8043303868507763e-11   6.8477884603153942e-11   6.6512445074948917e-11   6.6644740114493427e-11   6.4710787385733743e-11   6.4548989571212510e-11   6.2655679685804369e-11   6.2210814840009501e-11   6.0366912449895956e-11   5.9652733238419848e-11   5.7866527476030282e-11   5.6899380757370546e-11   5.5178605273109990e-11   5.3977274520008392e-11   5.2329033161031547e-11   5.0914557239688070e-11   4.9345255747677774e-11   4.7740726516985945e-11   4.6256010513987971e-11   4.4486350363407216e-11   4.3091051333731998e-11   4.1182772599865387e-11   3.9880861318490703e-11   3.7861811315092829e-11   3.6656359677349166e-11   3.4555452120335010e-11   3.3448603457792925e-11   3.1295540517673003e-11   3.0288488766518255e-11   2.8113474285700654e-11   2.7206452955719988e-11   2.5039901900793780e-11   2.4232181567598588e-11   2.2104426993945231e-11   2.1394322240132248e-11   1.9335323149931684e-11   1.8720209098227047e-11   1.6759261891440745e-11   1.6235599145339378e-11   1.4401055409738545e-11   1.3964424325853560e-11   1.2283417965348981e-11   1.1928561117079723e-11   1.0426746935685537e-11   1.0147619743384487e-11   8.8489262988164849e-12   8.6387554144737018e-12   7.5651546150425821e-12   7.4165028654712253e-12   6.5877984888403858e-12   6.4926367118093710e-12   5.9262735993932388e-12   5.8760578409379657e-12   5.5869539366484256e-12   5.5727077842185393e-12   5.5731104093191595e-12   5.5855115077368163e-12   5.8848794249549073e-12   5.9143491620590579e-12   6.5192616656795688e-12   6.5560573864477264e-12   7.4701507692242001e-12   7.5044597976392661e-12   8.7283922766366449e-12   8.7504262967365489e-12   1.0281871790918947e-11   1.0281961156447177e-11   1.2115631695875756e-11   1.2084318603360982e-11   1.4212015153598417e-11   1.4140144762736289e-11   1.6550836113553918e-11   1.6429644670029469e-11   1.9109573723354322e-11   1.8930773130363664e-11   2.1863589355721051e-11   2.1619446911446373e-11   2.4786363722686744e-11   2.4469776670901509e-11   2.7849752390622898e-11   2.7454316421931970e-11   3.1024256529294335e-11   3.0544327402592264e-11   3.4279307439909000e-11   3.3710055419966885e-11   3.7583560424649156e-11   3.6921016965407862e-11   4.0905197084218364e-11   4.0146292820614075e-11   4.4212231313008805e-11   4.3354826010589610e-11   4.7472817620058293e-11   4.6515720578128268e-11   5.0655557707435114e-11   4.9598539324264408e-11   5.3729802521964596e-11   5.2573596622485142e-11   5.6665947910259146e-11   5.5412244637051535e-11   5.9435719232431401e-11   5.8087148904974660e-11   6.2012443906858458e-11   6.0572551523309866e-11   6.4371308065775191e-11   6.2844519361776415e-11   6.6489595619950867e-11   6.4881174455523690e-11   6.8346906863020474e-11   6.6662904459172432e-11   6.9925355286481958e-11   6.8172551868364838e-11   7.1209739385314317e-11   6.9395578996807937e-11   7.2187689342717822e-11   7.0320207968509454e-11   7.2849786162420033e-11   7.0937534172917507e-11   7.3189652445346895e-11   7.1241612155493080e-11   7.1224371680423582e-11   6.8930052052410828e-11   7.0937933711627118e-11   6.8617938991649816e-11   7.0348312967565599e-11   6.8014018277041049e-11   6.9461180029617222e-11   6.7124098414169420e-11   6.8285071885784196e-11   6.5956743595690290e-11   6.6831310258605298e-11   6.4523191311359844e-11   6.5113892006381175e-11   6.2837243957978887e-11   6.3149354561943273e-11   6.0915135731592316e-11   6.0956616024494576e-11   5.8775376487602016e-11   5.8556793300002413e-11   5.6438572924916452e-11   5.5972998394739617e-11   5.3927230343535791e-11   5.3230115812209039e-11   5.1265535748856905e-11   5.0354562742724531e-11   4.8479124478527631e-11   4.7374034462855829e-11   4.5594833888955054e-11   4.431723