<?xml version="1.0"?>
<VTKFile type="UnstructuredGrid"  version="0.1"  >
<UnstructuredGrid>
<Piece  NumberOfPoints="1089" NumberOfCells="2048">
<Points>
<DataArray  type="Float64"  NumberOfComponents="3"  format="ascii">0 0 0  0.03125 0 0  0.0625 0 0  0.09375 0 0  0.125 0 0  0.15625 0 0  0.1875 0 0  0.21875 0 0  0.25 0 0  0.28125 0 0  0.3125 0 0  0.34375 0 0  0.375 0 0  0.40625 0 0  0.4375 0 0  0.46875 0 0  0.5 0 0  0.53125 0 0  0.5625 0 0  0.59375 0 0  0.625 0 0  0.65625 0 0  0.6875 0 0  0.71875 0 0  0.75 0 0  0.78125 0 0  0.8125 0 0  0.84375 0 0  0.875 0 0  0.90625 0 0  0.9375 0 0  0.96875 0 0  1 0 0  0 0.03125 0  0.03125 0.03125 0  0.0625 0.03125 0  0.09375 0.03125 0  0.125 0.03125 0  0.15625 0.03125 0  0.1875 0.03125 0  0.21875 0.03125 0  0.25 0.03125 0  0.28125 0.03125 0  0.3125 0.03125 0  0.34375 0.03125 0  0.375 0.03125 0  0.40625 0.03125 0  0.4375 0.03125 0  0.46875 0.03125 0  0.5 0.03125 0  0.53125 0.03125 0  0.5625 0.03125 0  0.59375 0.03125 0  0.625 0.03125 0  0.65625 0.03125 0  0.6875 0.03125 0  0.71875 0.03125 0  0.75 0.03125 0  0.78125 0.03125 0  0.8125 0.03125 0  0.84375 0.03125 0  0.875 0.03125 0  0.90625 0.03125 0  0.9375 0.03125 0  0.96875 0.03125 0  1 0.03125 0  0 0.0625 0  0.03125 0.0625 0  0.0625 0.0625 0  0.09375 0.0625 0  0.125 0.0625 0  0.15625 0.0625 0  0.1875 0.0625 0  0.21875 0.0625 0  0.25 0.0625 0  0.28125 0.0625 0  0.3125 0.0625 0  0.34375 0.0625 0  0.375 0.0625 0  0.40625 0.0625 0  0.4375 0.0625 0  0.46875 0.0625 0  0.5 0.0625 0  0.53125 0.0625 0  0.5625 0.0625 0  0.59375 0.0625 0  0.625 0.0625 0  0.65625 0.0625 0  0.6875 0.0625 0  0.71875 0.0625 0  0.75 0.0625 0  0.78125 0.0625 0  0.8125 0.0625 0  0.84375 0.0625 0  0.875 0.0625 0  0.90625 0.0625 0  0.9375 0.0625 0  0.96875 0.0625 0  1 0.0625 0  0 0.09375 0  0.03125 0.09375 0  0.0625 0.09375 0  0.09375 0.09375 0  0.125 0.09375 0  0.15625 0.09375 0  0.1875 0.09375 0  0.21875 0.09375 0  0.25 0.09375 0  0.28125 0.09375 0  0.3125 0.09375 0  0.34375 0.09375 0  0.375 0.09375 0  0.40625 0.09375 0  0.4375 0.09375 0  0.46875 0.09375 0  0.5 0.09375 0  0.53125 0.09375 0  0.5625 0.09375 0  0.59375 0.09375 0  0.625 0.09375 0  0.65625 0.09375 0  0.6875 0.09375 0  0.71875 0.09375 0  0.75 0.09375 0  0.78125 0.09375 0  0.8125 0.09375 0  0.84375 0.09375 0  0.875 0.09375 0  0.90625 0.09375 0  0.9375 0.09375 0  0.96875 0.09375 0  1 0.09375 0  0 0.125 0  0.03125 0.125 0  0.0625 0.125 0  0.09375 0.125 0  0.125 0.125 0  0.15625 0.125 0  0.1875 0.125 0  0.21875 0.125 0  0.25 0.125 0  0.28125 0.125 0  0.3125 0.125 0  0.34375 0.125 0  0.375 0.125 0  0.40625 0.125 0  0.4375 0.125 0  0.46875 0.125 0  0.5 0.125 0  0.53125 0.125 0  0.5625 0.125 0  0.59375 0.125 0  0.625 0.125 0  0.65625 0.125 0  0.6875 0.125 0  0.71875 0.125 0  0.75 0.125 0  0.78125 0.125 0  0.8125 0.125 0  0.84375 0.125 0  0.875 0.125 0  0.90625 0.125 0  0.9375 0.125 0  0.96875 0.125 0  1 0.125 0  0 0.15625 0  0.03125 0.15625 0  0.0625 0.15625 0  0.09375 0.15625 0  0.125 0.15625 0  0.15625 0.15625 0  0.1875 0.15625 0  0.21875 0.15625 0  0.25 0.15625 0  0.28125 0.15625 0  0.3125 0.15625 0  0.34375 0.15625 0  0.375 0.15625 0  0.40625 0.15625 0  0.4375 0.15625 0  0.46875 0.15625 0  0.5 0.15625 0  0.53125 0.15625 0  0.5625 0.15625 0  0.59375 0.15625 0  0.625 0.15625 0  0.65625 0.15625 0  0.6875 0.15625 0  0.71875 0.15625 0  0.75 0.15625 0  0.78125 0.15625 0  0.8125 0.15625 0  0.84375 0.15625 0  0.875 0.15625 0  0.90625 0.15625 0  0.9375 0.15625 0  0.96875 0.15625 0  1 0.15625 0  0 0.1875 0  0.03125 0.1875 0  0.0625 0.1875 0  0.09375 0.1875 0  0.125 0.1875 0  0.15625 0.1875 0  0.1875 0.1875 0  0.21875 0.1875 0  0.25 0.1875 0  0.28125 0.1875 0  0.3125 0.1875 0  0.34375 0.1875 0  0.375 0.1875 0  0.40625 0.1875 0  0.4375 0.1875 0  0.46875 0.1875 0  0.5 0.1875 0  0.53125 0.1875 0  0.5625 0.1875 0  0.59375 0.1875 0  0.625 0.1875 0  0.65625 0.1875 0  0.6875 0.1875 0  0.71875 0.1875 0  0.75 0.1875 0  0.78125 0.1875 0  0.8125 0.1875 0  0.84375 0.1875 0  0.875 0.1875 0  0.90625 0.1875 0  0.9375 0.1875 0  0.96875 0.1875 0  1 0.1875 0  0 0.21875 0  0.03125 0.21875 0  0.0625 0.21875 0  0.09375 0.21875 0  0.125 0.21875 0  0.15625 0.21875 0  0.1875 0.21875 0  0.21875 0.21875 0  0.25 0.21875 0  0.28125 0.21875 0  0.3125 0.21875 0  0.34375 0.21875 0  0.375 0.21875 0  0.40625 0.21875 0  0.4375 0.21875 0  0.46875 0.21875 0  0.5 0.21875 0  0.53125 0.21875 0  0.5625 0.21875 0  0.59375 0.21875 0  0.625 0.21875 0  0.65625 0.21875 0  0.6875 0.21875 0  0.71875 0.21875 0  0.75 0.21875 0  0.78125 0.21875 0  0.8125 0.21875 0  0.84375 0.21875 0  0.875 0.21875 0  0.90625 0.21875 0  0.9375 0.21875 0  0.96875 0.21875 0  1 0.21875 0  0 0.25 0  0.03125 0.25 0  0.0625 0.25 0  0.09375 0.25 0  0.125 0.25 0  0.15625 0.25 0  0.1875 0.25 0  0.21875 0.25 0  0.25 0.25 0  0.28125 0.25 0  0.3125 0.25 0  0.34375 0.25 0  0.375 0.25 0  0.40625 0.25 0  0.4375 0.25 0  0.46875 0.25 0  0.5 0.25 0  0.53125 0.25 0  0.5625 0.25 0  0.59375 0.25 0  0.625 0.25 0  0.65625 0.25 0  0.6875 0.25 0  0.71875 0.25 0  0.75 0.25 0  0.78125 0.25 0  0.8125 0.25 0  0.84375 0.25 0  0.875 0.25 0  0.90625 0.25 0  0.9375 0.25 0  0.96875 0.25 0  1 0.25 0  0 0.28125 0  0.03125 0.28125 0  0.0625 0.28125 0  0.09375 0.28125 0  0.125 0.28125 0  0.15625 0.28125 0  0.1875 0.28125 0  0.21875 0.28125 0  0.25 0.28125 0  0.28125 0.28125 0  0.3125 0.28125 0  0.34375 0.28125 0  0.375 0.28125 0  0.40625 0.28125 0  0.4375 0.28125 0  0.46875 0.28125 0  0.5 0.28125 0  0.53125 0.28125 0  0.5625 0.28125 0  0.59375 0.28125 0  0.625 0.28125 0  0.65625 0.28125 0  0.6875 0.28125 0  0.71875 0.28125 0  0.75 0.28125 0  0.78125 0.28125 0  0.8125 0.28125 0  0.84375 0.28125 0  0.875 0.28125 0  0.90625 0.28125 0  0.9375 0.28125 0  0.96875 0.28125 0  1 0.28125 0  0 0.3125 0  0.03125 0.3125 0  0.0625 0.3125 0  0.09375 0.3125 0  0.125 0.3125 0  0.15625 0.3125 0  0.1875 0.3125 0  0.21875 0.3125 0  0.25 0.3125 0  0.28125 0.3125 0  0.3125 0.3125 0  0.34375 0.3125 0  0.375 0.3125 0  0.40625 0.3125 0  0.4375 0.3125 0  0.46875 0.3125 0  0.5 0.3125 0  0.53125 0.3125 0  0.5625 0.3125 0  0.59375 0.3125 0  0.625 0.3125 0  0.65625 0.3125 0  0.6875 0.3125 0  0.71875 0.3125 0  0.75 0.3125 0  0.78125 0.3125 0  0.8125 0.3125 0  0.84375 0.3125 0  0.875 0.3125 0  0.90625 0.3125 0  0.9375 0.3125 0  0.96875 0.3125 0  1 0.3125 0  0 0.34375 0  0.03125 0.34375 0  0.0625 0.34375 0  0.09375 0.34375 0  0.125 0.34375 0  0.15625 0.34375 0  0.1875 0.34375 0  0.21875 0.34375 0  0.25 0.34375 0  0.28125 0.34375 0  0.3125 0.34375 0  0.34375 0.34375 0  0.375 0.34375 0  0.40625 0.34375 0  0.4375 0.34375 0  0.46875 0.34375 0  0.5 0.34375 0  0.53125 0.34375 0  0.5625 0.34375 0  0.59375 0.34375 0  0.625 0.34375 0  0.65625 0.34375 0  0.6875 0.34375 0  0.71875 0.34375 0  0.75 0.34375 0  0.78125 0.34375 0  0.8125 0.34375 0  0.84375 0.34375 0  0.875 0.34375 0  0.90625 0.34375 0  0.9375 0.34375 0  0.96875 0.34375 0  1 0.34375 0  0 0.375 0  0.03125 0.375 0  0.0625 0.375 0  0.09375 0.375 0  0.125 0.375 0  0.15625 0.375 0  0.1875 0.375 0  0.21875 0.375 0  0.25 0.375 0  0.28125 0.375 0  0.3125 0.375 0  0.34375 0.375 0  0.375 0.375 0  0.40625 0.375 0  0.4375 0.375 0  0.46875 0.375 0  0.5 0.375 0  0.53125 0.375 0  0.5625 0.375 0  0.59375 0.375 0  0.625 0.375 0  0.65625 0.375 0  0.6875 0.375 0  0.71875 0.375 0  0.75 0.375 0  0.78125 0.375 0  0.8125 0.375 0  0.84375 0.375 0  0.875 0.375 0  0.90625 0.375 0  0.9375 0.375 0  0.96875 0.375 0  1 0.375 0  0 0.40625 0  0.03125 0.40625 0  0.0625 0.40625 0  0.09375 0.40625 0  0.125 0.40625 0  0.15625 0.40625 0  0.1875 0.40625 0  0.21875 0.40625 0  0.25 0.40625 0  0.28125 0.40625 0  0.3125 0.40625 0  0.34375 0.40625 0  0.375 0.40625 0  0.40625 0.40625 0  0.4375 0.40625 0  0.46875 0.40625 0  0.5 0.40625 0  0.53125 0.40625 0  0.5625 0.40625 0  0.59375 0.40625 0  0.625 0.40625 0  0.65625 0.40625 0  0.6875 0.40625 0  0.71875 0.40625 0  0.75 0.40625 0  0.78125 0.40625 0  0.8125 0.40625 0  0.84375 0.40625 0  0.875 0.40625 0  0.90625 0.40625 0  0.9375 0.40625 0  0.96875 0.40625 0  1 0.40625 0  0 0.4375 0  0.03125 0.4375 0  0.0625 0.4375 0  0.09375 0.4375 0  0.125 0.4375 0  0.15625 0.4375 0  0.1875 0.4375 0  0.21875 0.4375 0  0.25 0.4375 0  0.28125 0.4375 0  0.3125 0.4375 0  0.34375 0.4375 0  0.375 0.4375 0  0.40625 0.4375 0  0.4375 0.4375 0  0.46875 0.4375 0  0.5 0.4375 0  0.53125 0.4375 0  0.5625 0.4375 0  0.59375 0.4375 0  0.625 0.4375 0  0.65625 0.4375 0  0.6875 0.4375 0  0.71875 0.4375 0  0.75 0.4375 0  0.78125 0.4375 0  0.8125 0.4375 0  0.84375 0.4375 0  0.875 0.4375 0  0.90625 0.4375 0  0.9375 0.4375 0  0.96875 0.4375 0  1 0.4375 0  0 0.46875 0  0.03125 0.46875 0  0.0625 0.46875 0  0.09375 0.46875 0  0.125 0.46875 0  0.15625 0.46875 0  0.1875 0.46875 0  0.21875 0.46875 0  0.25 0.46875 0  0.28125 0.46875 0  0.3125 0.46875 0  0.34375 0.46875 0  0.375 0.46875 0  0.40625 0.46875 0  0.4375 0.46875 0  0.46875 0.46875 0  0.5 0.46875 0  0.53125 0.46875 0  0.5625 0.46875 0  0.59375 0.46875 0  0.625 0.46875 0  0.65625 0.46875 0  0.6875 0.46875 0  0.71875 0.46875 0  0.75 0.46875 0  0.78125 0.46875 0  0.8125 0.46875 0  0.84375 0.46875 0  0.875 0.46875 0  0.90625 0.46875 0  0.9375 0.46875 0  0.96875 0.46875 0  1 0.46875 0  0 0.5 0  0.03125 0.5 0  0.0625 0.5 0  0.09375 0.5 0  0.125 0.5 0  0.15625 0.5 0  0.1875 0.5 0  0.21875 0.5 0  0.25 0.5 0  0.28125 0.5 0  0.3125 0.5 0  0.34375 0.5 0  0.375 0.5 0  0.40625 0.5 0  0.4375 0.5 0  0.46875 0.5 0  0.5 0.5 0  0.53125 0.5 0  0.5625 0.5 0  0.59375 0.5 0  0.625 0.5 0  0.65625 0.5 0  0.6875 0.5 0  0.71875 0.5 0  0.75 0.5 0  0.78125 0.5 0  0.8125 0.5 0  0.84375 0.5 0  0.875 0.5 0  0.90625 0.5 0  0.9375 0.5 0  0.96875 0.5 0  1 0.5 0  0 0.53125 0  0.03125 0.53125 0  0.0625 0.53125 0  0.09375 0.53125 0  0.125 0.53125 0  0.15625 0.53125 0  0.1875 0.53125 0  0.21875 0.53125 0  0.25 0.53125 0  0.28125 0.53125 0  0.3125 0.53125 0  0.34375 0.53125 0  0.375 0.53125 0  0.40625 0.53125 0  0.4375 0.53125 0  0.46875 0.53125 0  0.5 0.53125 0  0.53125 0.53125 0  0.5625 0.53125 0  0.59375 0.53125 0  0.625 0.53125 0  0.65625 0.53125 0  0.6875 0.53125 0  0.71875 0.53125 0  0.75 0.53125 0  0.78125 0.531
[...]
<CellData  Scalars="f_132261"> 
<DataArray  type="Float64"  Name="f_132261"  format="ascii">1.3620345186390445e-12   2.1357568642084612e-12   2.2587579528031358e-12   2.5521286656754724e-12   3.7823391888702059e-12   3.5986341541551172e-12   5.8740716614204921e-12   5.2376685446599540e-12   8.4535759211290687e-12   7.4062215164868179e-12   1.1421725600969026e-11   1.0020965296073696e-11   1.4664458056365291e-11   1.2981417258354192e-11   1.8057157736056949e-11   1.6173808335961973e-11   2.1469445513029149e-11   1.9475456269181500e-11   2.4770189304514453e-11   2.2759480287691815e-11   2.7832543503882789e-11   2.5899677012651705e-11   3.0538823632119376e-11   2.8775370335587855e-11   3.2785028908803451e-11   3.1276048905441282e-11   3.4484838955518642e-11   3.3305613001586629e-11   3.5572931045894971e-11   3.4786067582977865e-11   3.6007490424920392e-11   3.5660519588242984e-11   3.5771817228573117e-11   3.5895364301163658e-11   3.4874968251311968e-11   3.5481576759280305e-11   3.3351408899224798e-11   3.4435058577276531e-11   3.1259688704295370e-11   3.2796026856636979e-11   2.8680191299004765e-11   3.0627468665226927e-11   2.5712045318429557e-11   2.8012720479858487e-11   2.2469314943463833e-11   2.5052265616425599e-11   1.9076616461424938e-11   2.1859872706712723e-11   1.5664329364912826e-11   1.8558223695541791e-11   1.2363585529023435e-11   1.5274199059219576e-11   9.3012309733555440e-12   1.2134002941322185e-11   6.5949423688111751e-12   9.2583093773129081e-12   4.3487321454966654e-12   6.7576418615124923e-12   2.6487832840939488e-12   4.7280646146202761e-12   1.5607149670549912e-12   3.2476546163497616e-12   1.1238741908280688e-12   2.3736932156575334e-12   2.9309965735490234e-12   4.1403870646389564e-12   3.7480027410765716e-12   4.4983209892198082e-12   5.1334180063749095e-12   5.4141930240536481e-12   7.0326714059535167e-12   6.8548415302859717e-12   9.3728589519411795e-12   8.7646353962495852e-12   1.2064038620990521e-11   1.1070206924709242e-11   1.5002788228818407e-11   1.3682955062923892e-11   1.8076172520230428e-11   1.6502474510295495e-11   2.1166082844215386e-11   1.9420413178476281e-11   2.4153775633681800e-11   2.2324636476629041e-11   2.6924435533959830e-11   2.5103536771844209e-11   2.9371587653193009e-11   2.7650322484478898e-11   3.1401189320602614e-11   2.9867122057809089e-11   3.2935244090508480e-11   3.1668745117248578e-11   3.3914799101689126e-11   3.2985956291730032e-11   3.4302210603214253e-11   3.3768135890547054e-11   3.4082590583085058e-11   3.3985225189476337e-11   3.3264378906523787e-11   3.3628881570222201e-11   3.1879018976297314e-11   3.2712799122623654e-11   2.9979749379629689e-11   3.1272182388455717e-11   2.7639557956613835e-11   2.9362393471698537e-11   2.4948376912867006e-11   2.7056824505860210e-11   2.2009626761146682e-11   2.4444077240554090e-11   1.8936241895619865e-11   2.1624558131031290e-11   1.5846330512673535e-11   1.8706619809291849e-11   1.2858635556969088e-11   1.5802397086885714e-11   1.0087971543458503e-11   1.3023498087188569e-11   7.6408101433636541e-12   1.0476713136880776e-11   5.6112047148741716e-12   8.2599174868412657e-12   4.0771239011190551e-12   6.4582794114129589e-12   3.0979230657575382e-12   5.1410330538779864e-12   2.7083952728547715e-12   4.3598125926013210e-12   5.1144628509836551e-12   6.7037098833282994e-12   5.8229061788944993e-12   6.9881623517310101e-12   7.0189628158901067e-12   7.7367000790392259e-12   8.6545155761740541e-12   8.9221813194287639e-12   1.0666944806710743e-11   1.0498864182657082e-11   1.2978890557585472e-11   1.2406203153740982e-11   1.5501509377618063e-11   1.4570891733925199e-11   1.8137857740756370e-11   1.6909742629162685e-11   2.0786621897714492e-11   1.9332875400374023e-11   2.3346011105838528e-11   2.1747170668084045e-11   2.5717669356378386e-11   2.4059848574115087e-11   2.7810455091491219e-11   2.6182034289143027e-11   2.9543943695262757e-11   2.8032173452470276e-11   3.0851518152245758e-11   2.9539166279028576e-11   3.1682929094604613e-11   3.0645099894749643e-11   3.2006225853442085e-11   3.1307473901304889e-11   3.1808984302940908e-11   3.1500833645485406e-11   3.1098784311000869e-11   3.1217748428824087e-11   2.9902918447582543e-11   3.0469097066202503e-11   2.8267343144024928e-11   2.9283649819936360e-11   2.6254912609089654e-11   2.7706962775782131e-11   2.3942963369052690e-11   2.5799627149520533e-11   2.1420342255784026e-11   2.3634940802476707e-11   1.8783992045374035e-11   2.1296091442973189e-11   1.6135226014842282e-11   1.8872959772486707e-11   1.3575834391086611e-11   1.6458665312106682e-11   1.1204173881760843e-11   1.4145988031253603e-11   9.1113844296841897e-12   1.2023801175051572e-11   7.3779142857371534e-12   1.0173661009466446e-11   6.0703072885208950e-12   8.6666567813315077e-12   5.2392135991886630e-12   7.5606689220471947e-12   4.9139833558285290e-12   6.8999411358247125e-12   7.8282180276171979e-12   9.7268872527297522e-12   8.4033173716263110e-12   9.9240139832290150e-12   9.3661592232482359e-12   1.0473894739179240e-11   1.0677025175449059e-11   1.1356627742965514e-11   1.2285792418422522e-11   1.2538040446221031e-11   1.4130585631061673e-11   1.3972765189917922e-11   1.6140519301757902e-11   1.5605656121640710e-11   1.8238352196753257e-11   1.7373962999268947e-11   2.0343465850732989e-11   1.9209730484487792e-11   2.2374961790891922e-11   2.1042411126313244e-11   2.4254770653157571e-11   2.2801576136371943e-11   2.5910652353456786e-11   2.4419621878917954e-11   2.7278972229221040e-11   2.5834367829397547e-11   2.8307146475127989e-11   2.6991446140487266e-11   2.8955662902375504e-11   2.7846390973819427e-11   2.9199599365322845e-11   2.8366347302015965e-11   2.9029581502446777e-11   2.8531333512342005e-11   2.8452142985574738e-11   2.8335009290923590e-11   2.7489474432613435e-11   2.7784919278790297e-11   2.6178570632623854e-11   2.6902203136031749e-11   2.4569808854518364e-11   2.5720783156391137e-11   2.2725012874528888e-11   2.4286060650879897e-11   2.0715077124793025e-11   2.2653171196384622e-11   1.8617242268100181e-11   2.0884865791570391e-11   1.6512126964806108e-11   1.9049099350732876e-11   1.4480629745163759e-11   1.7216419118708529e-11   1.2600821365832009e-11   1.5457253706678716e-11   1.0944940643547971e-11   1.3839205452350515e-11   9.5766434563674960e-12   1.2424456740241753e-11   8.5484336896419404e-12   1.1267373218605127e-11   7.9003526664630363e-12   1.0412349628136392e-11   7.6548178761290327e-12   9.8946767130607191e-12   1.0968144093588161e-11   1.3093752970376937e-11   1.1390111004777273e-11   1.3193272994798394e-11   1.2084907933691155e-11   1.3521060923248883e-11   1.3022477423521198e-11   1.4065178304695544e-11   1.4167056198335766e-11   1.4804369653495507e-11   1.5474602698937506e-11   1.5710270728909230e-11   1.6894879659228266e-11   1.6748060600006694e-11   1.8373305147644801e-11   1.7877858683184519e-11   1.9853064580261241e-11   1.9056246936309088e-11   2.1277291630171151e-11   2.0237940486317686e-11   2.2591254013597191e-11   2.1377527505557512e-11   2.3744456836089455e-11   2.2431214340737304e-11   2.4692583107725572e-11   2.3358508443329926e-11   2.5399196824935003e-11   2.4123774462496046e-11   2.5837143184964671e-11   2.4697603688126581e-11   2.5989592127815757e-11   2.5057944211046223e-11   2.5850685104017456e-11   2.5190948366680713e-11   2.5425760213875129e-11   2.5091504893914991e-11   2.4731147066457840e-11   2.4763435358381060e-11   2.3793539241667279e-11   2.4219347291321162e-11   2.2648968472556822e-11   2.3480149687144878e-11   2.1341419971182630e-11   2.2574249478081297e-11   1.9921142116054281e-11   2.1536459862939048e-11   1.8442715463369654e-11   2.0406662436897199e-11   1.6962955341972952e-11   1.9228274543880752e-11   1.5538728442290961e-11   1.8046580698055766e-11   1.4224768458920497e-11   1.6906992485952614e-11   1.3071568290808644e-11   1.5853302811006377e-11   1.2123465594428727e-11   1.4926005948168286e-11   1.1416817676148487e-11   1.4160742245521332e-11   1.0979373526838767e-11   1.3586814774565744e-11   1.0825937290038028e-11   1.3229455975546847e-11   1.4413557919673438e-11   1.6674922348244990e-11   1.4668493097959693e-11   1.6670284418178772e-11   1.5070717401710125e-11   1.6761035698056276e-11   1.5600735463515972e-11   1.6943635351949340e-11   1.6238462562887377e-11   1.7210637857101355e-11   1.6959334601569891e-11   1.7551828772018159e-11   1.7735658383040664e-11   1.7954085926435309e-11   1.8537598032419028e-11   1.8401952125986398e-11   1.9334336052242457e-11   1.8878215752868436e-11   2.0095254279140845e-11   1.9364574192843316e-11   2.0791111086227435e-11   1.9842336901404386e-11   2.1395165071449718e-11   2.0293143715589163e-11   2.1884202749868111e-11   2.0699670396375444e-11   2.2239430646411139e-11   2.1046294374663918e-11   2.2447197523949520e-11   2.1319695109371513e-11   2.2499518994431986e-11   2.1509365984268632e-11   2.2394384354859356e-11   2.1608018069606877e-11   2.2135833857579829e-11   2.1611860230650248e-11   2.1733803446544080e-11   2.1520744817775165e-11   2.1203742926586119e-11   2.1338173338808564e-11   2.0566022240749038e-11   2.1071161894836286e-11   1.9845148674084434e-11   2.0729971549832374e-11   1.9068825070474843e-11   2.0327713995397168e-11   1.8266885253286979e-11   1.9879847662883788e-11   1.7470147593780662e-11   1.9403583658339494e-11   1.6709230576292259e-11   1.8917224324463248e-11   1.6013376949285950e-11   1.8439460058843032e-11   1.5409325577511644e-11   1.7988650769626475e-11   1.4920310662385451e-11   1.7582121978004617e-11   1.4565051952336058e-11   1.7235507212893669e-11   1.4357872357110213e-11   1.6961989812815607e-11   1.4305342409411241e-11   1.6775999242912977e-11   1.8032050785777986e-11   2.0332774899195026e-11   1.8112482956895852e-11   2.0221428378554102e-11   1.8208843263402795e-11   2.0069316485606406e-11   1.8312718120114197e-11   1.9881400663545844e-11   1.8420408559903091e-11   1.9664397754894425e-11   1.8527719493794919e-11   1.9426692608841709e-11   1.8630535765602447e-11   1.9177407266477001e-11   1.8724903937643169e-11   1.8926123518349420e-11   1.8807197975180842e-11   1.8682497795889747e-11   1.8874255354643237e-11   1.8455892480469016e-11   1.8923499158845818e-11   1.8255015827107896e-11   1.8953036988513348e-11   1.8087587384007874e-11   1.8961733716202685e-11   1.7960041323517746e-11   1.8949255116924693e-11   1.7877279173532440e-11   1.8916080719613732e-11   1.7842481447055753e-11   1.8863485383187349e-11   1.7856985411620513e-11   1.8793490306866448e-11   1.7920233695438855e-11   1.8708785358497815e-11   1.8029795704494847e-11   1.8612625706745956e-11   1.8181461026714378e-11   1.8508706730216684e-11   1.8369401233242580e-11   1.8401022011941704e-11   1.8586393858334508e-11   1.8293709876955606e-11   1.8824099950398729e-11   1.8190894372282124e-11   1.9073384528415529e-11   1.8096526793406807e-11   1.9324667630363972e-11   1.8014233867200039e-11   1.9568292473735713e-11   1.7947178235513545e-11   1.9794896568395962e-11   1.7897937612231949e-11   1.9995771646643161e-11   1.7868401733830657e-11   2.0163198255250317e-11   1.7859726729255405e-11   2.0290742918342456e-11   1.7872182453471170e-11   2.0373520192396833e-11   1.7906023344132465e-11   2.0408187100428684e-11   1.7959337089383664e-11   2.0398048640170104e-11   2.1684563582480900e-11   2.3926742315542360e-11   2.1589730401957516e-11   2.3710235873150230e-11   2.1378688565111202e-11   2.3318766860375408e-11   2.1054204484690830e-11   2.2765575587906999e-11   2.0629042506139959e-11   2.2071348800177935e-11   2.0119485384924004e-11   2.1262807345002940e-11   1.9545123386144585e-11   2.0371008105777078e-11   1.8928026695738977e-11   1.9430224498468635e-11   1.8291910330916505e-11   1.8476610009629602e-11   1.7661219830408345e-11   1.7546811550056843e-11   1.7060192328083284e-11   1.6676560716605889e-11   1.6511924994912076e-11   1.5899300733308384e-11   1.6037487447326374e-11   1.5244901246946845e-11   1.5655112054518644e-11   1.4738510454242878e-11   1.5379493284579341e-11   1.4399588666920865e-11   1.5221223008635761e-11   1.4241160458861223e-11   1.5186383464470681e-11   1.4269314135518230e-11   1.5276313522506608e-11   1.4482967760848426e-11   1.5487557236682560e-11   1.4873910732986814e-11   1.5811996658283056e-11   1.5427119310554404e-11   1.6237163808965101e-11   1.6121333964177221e-11   1.6746719823817493e-11   1.6929876366204828e-11   1.7321082850498807e-11   1.7821674623555719e-11   1.7938180566547150e-11   1.8762457356907556e-11   1.8574298410448629e-11   1.9716070746072200e-11   1.9204990773995617e-11   2.0645867923349978e-11   1.9806021066884669e-11   2.1516117377634847e-11   2.0354289664752836e-11   2.2293376195053814e-11   2.0828748030047680e-11   2.2947774891001190e-11   2.1211111779282459e-11   2.3454185691830993e-11   2.1487469379355289e-11   2.3792967570051196e-11   2.1647493578722816e-11   2.3956403666476724e-11   2.5230731110943320e-11   2.7318710901772268e-11   2.4966606950228395e-11   2.7002633911989093e-11   2.4458438408117865e-11   2.6384512029548559e-11   2.3719840740151985e-11   2.5485323145095143e-11   2.2779487647451057e-11   2.4338994012949869e-11   2.1673461587753791e-11   2.2989613178612275e-11   2.0444274170105555e-11   2.1489020014787341e-11   1.9139160319618283e-11   1.9894883573751320e-11   1.7808275099067749e-11   1.8268465271010730e-11   1.6502763597279500e-11   1.6672267527181717e-11   1.5272795920281455e-11   1.5167631306962315e-11   1.4165639054560312e-11   1.3812378917389773e-11   1.3223840434487353e-11   1.2658591928078636e-11   1.2483592863286083e-11   1.1750609710936205e-11   1.1973343646851446e-11   1.1123325502431549e-11   1.1712701382824856e-11   1.0800845473973894e-11   1.1711682416324278e-11   1.0795562342680964e-11   1.1970325920325118e-11   1.1107679123718791e-11   1.2478692393244030e-11   1.1725201326262262e-11   1.3217245631347821e-11   1.2624397893280775e-11   1.4157603497008857e-11   1.3770713171549489e-11   1.5263628630228813e-11   1.5120094866295549e-11   1.6492817186162936e-11   1.6620686949200996e-11   1.7797932223769317e-11   1.8214822464371224e-11   1.9128818987430680e-11   1.9841239653573500e-11   2.0434332204836361e-11   2.1437436235603559e-11   2.1664302145501207e-11   2.2942071373356878e-11   2.2771459784886375e-11   2.4297323185297090e-11   2.3713278395891608e-11   2.5451109898644633e-11   2.4453527918883633e-11   2.6359116025579782e-11   2.4964576938099218e-11   2.6986257004267004e-11   2.5228078733722488e-11   2.7314320532978437e-11   2.8534275551384741e-11   3.0378329445594623e-11   2.8113341068571150e-11   2.9972097515894515e-11   2.7329739945242498e-11   2.9148736974777472e-11   2.6207188022530246e-11   2.7936124840627029e-11   2.4789103462244813e-11   2.6380189003914150e-11   2.3129929538606610e-11   2.4540749851988279e-11   2.1293434193185460e-11   2.2488478280395679e-11   1.9350191078970943e-11   2.0302243971930414e-11   1.7374878176899740e-11   1.8066062266238294e-11   1.5443405563154754e-11   1.5865868457019242e-11   1.3629998662749241e-11   1.3786214744934513e-11   1.2004345698899648e-11   1.1907021043559342e-11   1.0628919621504072e-11   1.0300503694895532e-11   9.5565772993171128e-12   9.0284002422770887e-12   8.8285282605970984e-12   8.1395968923292686e-12   8.4727510355487694e-12   7.6682498449211196e-12   8.5029179593443774e-12   7.6324726881069293e-12   8.9178697543184350e-12   8.0336403013631822e-12   9.7016600826034690e-12   8.8563360182602159e-12   1.0824168356739558e-11   1.0068944079373470e-11   1.2242257257875886e-11   1.1624864608319916e-11   1.3901430477592581e-11   1.3464304420740158e-11   1.5737926975606700e-11   1.5516574847632209e-11   1.7681171268024466e-11   1.7702808270043741e-11   1.9656485593165857e-11   1.9938988971167624e-11   2.1587959648440881e-11   2.2139181833897639e-11   2.3401368279477519e-11   2.4218834786807019e-11   2.5027021747361227e-11   2.6098028386079541e-11   2.6402466909172971e-11   2.7704545939078228e-11   2.7474826239580732e-11   2.8976676219966266e-11   2.8203722334510182e-11   2.9865339003663040e-11   2.8563492368442287e-11   3.0342756028820953e-11   3.1468243237623912e-11   3.2988018650800445e-11   3.0909005436518597e-11   3.2504511911780759e-11   2.9882250773496711e-11   3.1505214017067463e-11   2.8420659070445340e-11   3.0023797658301601e-11   2.6580661550656467e-11   2.8116491768854986e-11   2.4432917951374150e-11   2.5856608086141877e-11   2.2059970678578948e-11   2.3330974339278321e-11   1.9553009169943922e-11   2.0636651110613407e-11   1.7008374768448779e-11   1.7877179259330151e-11   1.4523856266803766e-11   1.5158603820242174e-11   1.2194932326966378e-11   1.2585398107176960e-11   1.0111102199407948e-11   1.0256448962647158e-11   8.3524463249113914e-12   8.2612565791905712e-12   6.9865488808887146e-12   6.6764950631959647e-12   6.0659005584351106e-12   5.5630658933281434e-12   5.6258813747275157e-12   4.9637575111883763e-12   5.6834010400636880e-12   4.9016009849127481e-12   6.2362491286957280e-12   5.3789849372352822e-12   7.2631800255707277e-12   6.3775637513590584e-12   8.7247293840415710e-12   7.8589625826354107e-12   1.0564730717958892e-11   9.7662520833486042e-12   1.2712473845333311e-11   1.2026136168350109e-11   1.5085422234636366e-11   1.4551768747532263e-11   1.7592384825852503e-11   1.7246091180214710e-11   2.0137020442001482e-11   2.0005562194117949e-11   2.2621540073412572e-11   2.2724136933450192e-11   2.4950465258502302e-11   2.5297342196596862e-11   2.7034295799827437e-11   2.7626291601107657e-11   2.8792969656161987e-11   2.9621484684665459e-11   3.0158899871763851e-11   3.1206274941247264e-11   3.1080426856598656e-11   3.2319572143603204e-11   3.1525556421504796e-11   3.2925329168601188e-11   3.3919883273332115e-11   3.5047489695360098e-11   3.3246164161467624e-11   3.4502557874216144e-11   3.2017879371339349e-11   3.3363385039070530e-11   3.0275191503231573e-11   3.1668113446890441e-11   2.8085313373852093e-11   2.9481177122650534e-11   2.5532353704975052e-11   2.6886620170504915e-11   2.2714426035796458e-11   2.3984131541252629e-11   1.9739820387089220e-11   2.0885253915550545e-11   1.6722849383324296e-11   1.7709074919480774e-11   1.3779453467236290e-11   1.4577653397742865e-11   1.1022745702937468e-11   1.1611328100812723e-11   8.5586648332279023e-12   8.9240932348096949e-12   6.4819041213415938e-12   6.6192177113396749e-12   4.8722723360579483e-12   4.7852765861247795e-12   3.7916267441747100e-12   3.4927471702015523e-12   3.2814959699539735e-12   2.7913006269379533e-12   3.3614840738447472e-12   2.7078931369892696e-12   4.0285171801464438e-12   3.2457299870837974e-12   5.2569616048325640e-12   4.3841423925460757e-12   6.9996089434068500e-12   6.0793817875973162e-12   9.1894902618939161e-12   8.2663010596827467e-12   1.1742449671896308e-11   1.0860858119340805e-11   1.4560378388021990e-11   1.3763345594990984e-11   1.7534984984707070e-11   1.6862222537338471e-11   2.0551956966421222e-11   2.0038400882062611e-11   2.3495353711162566e-11   2.3169821946098294e-11   2.6252062298398308e-11   2.6136147070670155e-11   2.8716143617134415e-11   2.8823382455428851e-11   3.0792920955109041e-11   3.1128259220326306e-11   3.2402601286622110e-11   3.2962229969912769e-11   3.3484140273008120e-11   3.4254641645246911e-11   3.4000440407421808e-11   3.4962793107652747e-11   3.5794980417849394e-11   3.6477598300484850e-11   3.5035001488727812e-11   3.5889451643800937e-11   3.3654554739372605e-11   3.4651841559528910e-11   3.1699516723970873e-11   3.2805882037707127e-11   2.9245236043018347e-11   3.0421800936020064e-11   2.6385986113037422e-11   2.7591203296310721e-11   2.3231649907141137e-11   2.4422849416034962e-11   1.9903445667557769e-11   2.1038498726075850e-11   1.6529274589171710e-11   1.7568209412521234e-11   1.3238804135021676e-11   1.4145342799795186e-11   1.0158485253435838e-11   1.0901437701667480e-11   7.4066928835525579e-12   7.9611555566870870e-12   5.0891768807136347e-12   5.4374897400909784e-12   3.2949981046260162e-12   3.4274232959359997e-12   2.093105