<?xml version="1.0"?>
<VTKFile type="UnstructuredGrid"  version="0.1"  >
<UnstructuredGrid>
<Piece  NumberOfPoints="4225" NumberOfCells="8192">
<Points>
<DataArray  type="Float64"  NumberOfComponents="3"  format="ascii">0 0 0  0.015625 0 0  0.03125 0 0  0.046875 0 0  0.0625 0 0  0.078125 0 0  0.09375 0 0  0.109375 0 0  0.125 0 0  0.140625 0 0  0.15625 0 0  0.171875 0 0  0.1875 0 0  0.203125 0 0  0.21875 0 0  0.234375 0 0  0.25 0 0  0.265625 0 0  0.28125 0 0  0.296875 0 0  0.3125 0 0  0.328125 0 0  0.34375 0 0  0.359375 0 0  0.375 0 0  0.390625 0 0  0.40625 0 0  0.421875 0 0  0.4375 0 0  0.453125 0 0  0.46875 0 0  0.484375 0 0  0.5 0 0  0.515625 0 0  0.53125 0 0  0.546875 0 0  0.5625 0 0  0.578125 0 0  0.59375 0 0  0.609375 0 0  0.625 0 0  0.640625 0 0  0.65625 0 0  0.671875 0 0  0.6875 0 0  0.703125 0 0  0.71875 0 0  0.734375 0 0  0.75 0 0  0.765625 0 0  0.78125 0 0  0.796875 0 0  0.8125 0 0  0.828125 0 0  0.84375 0 0  0.859375 0 0  0.875 0 0  0.890625 0 0  0.90625 0 0  0.921875 0 0  0.9375 0 0  0.953125 0 0  0.96875 0 0  0.984375 0 0  1 0 0  0 0.015625 0  0.015625 0.015625 0  0.03125 0.015625 0  0.046875 0.015625 0  0.0625 0.015625 0  0.078125 0.015625 0  0.09375 0.015625 0  0.109375 0.015625 0  0.125 0.015625 0  0.140625 0.015625 0  0.15625 0.015625 0  0.171875 0.015625 0  0.1875 0.015625 0  0.203125 0.015625 0  0.21875 0.015625 0  0.234375 0.015625 0  0.25 0.015625 0  0.265625 0.015625 0  0.28125 0.015625 0  0.296875 0.015625 0  0.3125 0.015625 0  0.328125 0.015625 0  0.34375 0.015625 0  0.359375 0.015625 0  0.375 0.015625 0  0.390625 0.015625 0  0.40625 0.015625 0  0.421875 0.015625 0  0.4375 0.015625 0  0.453125 0.015625 0  0.46875 0.015625 0  0.484375 0.015625 0  0.5 0.015625 0  0.515625 0.015625 0  0.53125 0.015625 0  0.546875 0.015625 0  0.5625 0.015625 0  0.578125 0.015625 0  0.59375 0.015625 0  0.609375 0.015625 0  0.625 0.015625 0  0.640625 0.015625 0  0.65625 0.015625 0  0.671875 0.015625 0  0.6875 0.015625 0  0.703125 0.015625 0  0.71875 0.015625 0  0.734375 0.015625 0  0.75 0.015625 0  0.765625 0.015625 0  0.78125 0.015625 0  0.796875 0.015625 0  0.8125 0.015625 0  0.828125 0.015625 0  0.84375 0.015625 0  0.859375 0.015625 0  0.875 0.015625 0  0.890625 0.015625 0  0.90625 0.015625 0  0.921875 0.015625 0  0.9375 0.015625 0  0.953125 0.015625 0  0.96875 0.015625 0  0.984375 0.015625 0  1 0.015625 0  0 0.03125 0  0.015625 0.03125 0  0.03125 0.03125 0  0.046875 0.03125 0  0.0625 0.03125 0  0.078125 0.03125 0  0.09375 0.03125 0  0.109375 0.03125 0  0.125 0.03125 0  0.140625 0.03125 0  0.15625 0.03125 0  0.171875 0.03125 0  0.1875 0.03125 0  0.203125 0.03125 0  0.21875 0.03125 0  0.234375 0.03125 0  0.25 0.03125 0  0.265625 0.03125 0  0.28125 0.03125 0  0.296875 0.03125 0  0.3125 0.03125 0  0.328125 0.03125 0  0.34375 0.03125 0  0.359375 0.03125 0  0.375 0.03125 0  0.390625 0.03125 0  0.40625 0.03125 0  0.421875 0.03125 0  0.4375 0.03125 0  0.453125 0.03125 0  0.46875 0.03125 0  0.484375 0.03125 0  0.5 0.03125 0  0.515625 0.03125 0  0.53125 0.03125 0  0.546875 0.03125 0  0.5625 0.03125 0  0.578125 0.03125 0  0.59375 0.03125 0  0.609375 0.03125 0  0.625 0.03125 0  0.640625 0.03125 0  0.65625 0.03125 0  0.671875 0.03125 0  0.6875 0.03125 0  0.703125 0.03125 0  0.71875 0.03125 0  0.734375 0.03125 0  0.75 0.03125 0  0.765625 0.03125 0  0.78125 0.03125 0  0.796875 0.03125 0  0.8125 0.03125 0  0.828125 0.03125 0  0.84375 0.03125 0  0.859375 0.03125 0  0.875 0.03125 0  0.890625 0.03125 0  0.90625 0.03125 0  0.921875 0.03125 0  0.9375 0.03125 0  0.953125 0.03125 0  0.96875 0.03125 0  0.984375 0.03125 0  1 0.03125 0  0 0.046875 0  0.015625 0.046875 0  0.03125 0.046875 0  0.046875 0.046875 0  0.0625 0.046875 0  0.078125 0.046875 0  0.09375 0.046875 0  0.109375 0.046875 0  0.125 0.046875 0  0.140625 0.046875 0  0.15625 0.046875 0  0.171875 0.046875 0  0.1875 0.046875 0  0.203125 0.046875 0  0.21875 0.046875 0  0.234375 0.046875 0  0.25 0.046875 0  0.265625 0.046875 0  0.28125 0.046875 0  0.296875 0.046875 0  0.3125 0.046875 0  0.328125 0.046875 0  0.34375 0.046875 0  0.359375 0.046875 0  0.375 0.046875 0  0.390625 0.046875 0  0.40625 0.046875 0  0.421875 0.046875 0  0.4375 0.046875 0  0.453125 0.046875 0  0.46875 0.046875 0  0.484375 0.046875 0  0.5 0.046875 0  0.515625 0.046875 0  0.53125 0.046875 0  0.546875 0.046875 0  0.5625 0.046875 0  0.578125 0.046875 0  0.59375 0.046875 0  0.609375 0.046875 0  0.625 0.046875 0  0.640625 0.046875 0  0.65625 0.046875 0  0.671875 0.046875 0  0.6875 0.046875 0  0.703125 0.046875 0  0.71875 0.046875 0  0.734375 0.046875 0  0.75 0.046875 0  0.765625 0.046875 0  0.78125 0.046875 0  0.796875 0.046875 0  0.8125 0.046875 0  0.828125 0.046875 0  0.84375 0.046875 0  0.859375 0.046875 0  0.875 0.046875 0  0.890625 0.046875 0  0.90625 0.046875 0  0.921875 0.046875 0  0.9375 0.046875 0  0.953125 0.046875 0  0.96875 0.046875 0  0.984375 0.046875 0  1 0.046875 0  0 0.0625 0  0.015625 0.0625 0  0.03125 0.0625 0  0.046875 0.0625 0  0.0625 0.0625 0  0.078125 0.0625 0  0.09375 0.0625 0  0.109375 0.0625 0  0.125 0.0625 0  0.140625 0.0625 0  0.15625 0.0625 0  0.171875 0.0625 0  0.1875 0.0625 0  0.203125 0.0625 0  0.21875 0.0625 0  0.234375 0.0625 0  0.25 0.0625 0  0.265625 0.0625 0  0.28125 0.0625 0  0.296875 0.0625 0  0.3125 0.0625 0  0.328125 0.0625 0  0.34375 0.0625 0  0.359375 0.0625 0  0.375 0.0625 0  0.390625 0.0625 0  0.40625 0.0625 0  0.421875 0.0625 0  0.4375 0.0625 0  0.453125 0.0625 0  0.46875 0.0625 0  0.484375 0.0625 0  0.5 0.0625 0  0.515625 0.0625 0  0.53125 0.0625 0  0.546875 0.0625 0  0.5625 0.0625 0  0.578125 0.0625 0  0.59375 0.0625 0  0.609375 0.0625 0  0.625 0.0625 0  0.640625 0.0625 0  0.65625 0.0625 0  0.671875 0.0625 0  0.6875 0.0625 0  0.703125 0.0625 0  0.71875 0.0625 0  0.734375 0.0625 0  0.75 0.0625 0  0.765625 0.0625 0  0.78125 0.0625 0  0.796875 0.0625 0  0.8125 0.0625 0  0.828125 0.0625 0  0.84375 0.0625 0  0.859375 0.0625 0  0.875 0.0625 0  0.890625 0.0625 0  0.90625 0.0625 0  0.921875 0.0625 0  0.9375 0.0625 0  0.953125 0.0625 0  0.96875 0.0625 0  0.984375 0.0625 0  1 0.0625 0  0 0.078125 0  0.015625 0.078125 0  0.03125 0.078125 0  0.046875 0.078125 0  0.0625 0.078125 0  0.078125 0.078125 0  0.09375 0.078125 0  0.109375 0.078125 0  0.125 0.078125 0  0.140625 0.078125 0  0.15625 0.078125 0  0.171875 0.078125 0  0.1875 0.078125 0  0.203125 0.078125 0  0.21875 0.078125 0  0.234375 0.078125 0  0.25 0.078125 0  0.265625 0.078125 0  0.28125 0.078125 0  0.296875 0.078125 0  0.3125 0.078125 0  0.328125 0.078125 0  0.34375 0.078125 0  0.359375 0.078125 0  0.375 0.078125 0  0.390625 0.078125 0  0.40625 0.078125 0  0.421875 0.078125 0  0.4375 0.078125 0  0.453125 0.078125 0  0.46875 0.078125 0  0.484375 0.078125 0  0.5 0.078125 0  0.515625 0.078125 0  0.53125 0.078125 0  0.546875 0.078125 0  0.5625 0.078125 0  0.578125 0.078125 0  0.59375 0.078125 0  0.609375 0.078125 0  0.625 0.078125 0  0.640625 0.078125 0  0.65625 0.078125 0  0.671875 0.078125 0  0.6875 0.078125 0  0.703125 0.078125 0  0.71875 0.078125 0  0.734375 0.078125 0  0.75 0.078125 0  0.765625 0.078125 0  0.78125 0.078125 0  0.796875 0.078125 0  0.8125 0.078125 0  0.828125 0.078125 0  0.84375 0.078125 0  0.859375 0.078125 0  0.875 0.078125 0  0.890625 0.078125 0  0.90625 0.078125 0  0.921875 0.078125 0  0.9375 0.078125 0  0.953125 0.078125 0  0.96875 0.078125 0  0.984375 0.078125 0  1 0.078125 0  0 0.09375 0  0.015625 0.09375 0  0.03125 0.09375 0  0.046875 0.09375 0  0.0625 0.09375 0  0.078125 0.09375 0  0.09375 0.09375 0  0.109375 0.09375 0  0.125 0.09375 0  0.140625 0.09375 0  0.15625 0.09375 0  0.171875 0.09375 0  0.1875 0.09375 0  0.203125 0.09375 0  0.21875 0.09375 0  0.234375 0.09375 0  0.25 0.09375 0  0.265625 0.09375 0  0.28125 0.09375 0  0.296875 0.09375 0  0.3125 0.09375 0  0.328125 0.09375 0  0.34375 0.09375 0  0.359375 0.09375 0  0.375 0.09375 0  0.390625 0.09375 0  0.40625 0.09375 0  0.421875 0.09375 0  0.4375 0.09375 0  0.453125 0.09375 0  0.46875 0.09375 0  0.484375 0.09375 0  0.5 0.09375 0  0.515625 0.09375 0  0.53125 0.09375 0  0.546875 0.09375 0  0.5625 0.09375 0  0.578125 0.09375 0  0.59375 0.09375 0  0.609375 0.09375 0  0.625 0.09375 0  0.640625 0.09375 0  0.65625 0.09375 0  0.671875 0.09375 0  0.6875 0.09375 0  0.703125 0.09375 0  0.71875 0.09375 0  0.734375 0.09375 0  0.75 0.09375 0  0.765625 0.09375 0  0.78125 0.09375 0  0.796875 0.09375 0  0.8125 0.09375 0  0.828125 0.09375 0  0.84375 0.09375 0  0.859375 0.09375 0  0.875 0.09375 0  0.890625 0.09375 0  0.90625 0.09375 0  0.921875 0.09375 0  0.9375 0.09375 0  0.953125 0.09375 0  0.96875 0.09375 0  0.984375 0.09375 0  1 0.09375 0  0 0.109375 0  0.015625 0.109375 0  0.03125 0.109375 0  0.046875 0.109375 0  0.0625 0.109375 0  0.078125 0.109375 0  0.09375 0.109375 0  0.109375 0.109375 0  0.125 0.109375 0  0.140625 0.109375 0  0.15625 0.109375 0  0.171875 0.109375 0  0.1875 0.109375 0  0.203125 0.109375 0  0.21875 0.109375 0  0.234375 0.109375 0  0.25 0.109375 0  0.265625 0.109375 0  0.28125 0.109375 0  0.296875 0.109375 0  0.3125 0.109375 0  0.328125 0.109375 0  0.34375 0.109375 0  0.359375 0.109375 0  0.375 0.109375 0  0.390625 0.109375 0  0.40625 0.109375 0  0.421875 0.109375 0  0.4375 0.109375 0  0.453125 0.109375 0  0.46875 0.109375 0  0.484375 0.109375 0  0.5 0.109375 0  0.515625 0.109375 0  0.53125 0.109375 0  0.546875 0.109375 0  0.5625 0.109375 0  0.578125 0.109375 0  0.59375 0.109375 0  0.609375 0.109375 0  0.625 0.109375 0  0.640625 0.109375 0  0.65625 0.109375 0  0.671875 0.109375 0  0.6875 0.109375 0  0.703125 0.109375 0  0.71875 0.109375 0  0.734375 0.109375 0  0.75 0.109375 0  0.765625 0.109375 0  0.78125 0.109375 0  0.796875 0.109375 0  0.8125 0.109375 0  0.828125 0.109375 0  0.84375 0.109375 0  0.859375 0.109375 0  0.875 0.109375 0  0.890625 0.109375 0  0.90625 0.109375 0  0.921875 0.109375 0  0.9375 0.109375 0  0.953125 0.109375 0  0.96875 0.109375 0  0.984375 0.109375 0  1 0.109375 0  0 0.125 0  0.015625 0.125 0  0.03125 0.125 0  0.046875 0.125 0  0.0625 0.125 0  0.078125 0.125 0  0.09375 0.125 0  0.109375 0.125 0  0.125 0.12
[...]
<CellData  Scalars="f_176326"> 
<DataArray  type="Float64"  Name="f_176326"  format="ascii">9.7128752349637008e-16   9.6766912767111671e-16   9.5543919314502607e-16   9.7665634019218372e-16   9.3522781484016792e-16   9.5757275946735539e-16   9.1085038289354469e-16   9.3418670162030028e-16   8.8254621151986478e-16   9.0673485520995332e-16   8.5058857099532586e-16   8.7548513335419480e-16   8.1528522591403326e-16   8.4074156181918281e-16   7.7697610550646750e-16   8.0284017293397350e-16   7.3603010459217728e-16   7.6214656240180358e-16   6.9284152927649608e-16   7.1905287277070787e-16   6.4782629294873100e-16   6.7397422446243568e-16   6.0141790676318834e-16   6.2734479793076172e-16   5.5406330213838603e-16   5.7961368352840946e-16   5.0621852534280063e-16   5.3124057003074351e-16   4.5834434454747248e-16   4.8269132324707348e-16   4.1090181200335970e-16   4.3443350242638237e-16   3.6434782357193905e-16   3.8693185861763981e-16   3.1913071834400010e-16   3.4064385966231142e-16   2.7568596074604487e-16   2.9601528487530070e-16   2.3443194673551627e-16   2.5347593213103148e-16   1.9576597437378820e-16   2.1343547879542769e-16   1.6006041758622590e-16   1.7627953644139367e-16   1.2765913992356287e-16   1.4236593710428531e-16   9.8874183042519813e-17   1.1202128733627338e-16   7.3982761497910428e-17   8.5537822682975551e-17   5.3224592992446744e-17   6.3170593412754866e-17   3.6799589836004823e-17   4.5135008198701096e-17   2.4865933607264755e-17   3.1604759610719963e-17   1.7538551805745928e-17   2.2710151386151390e-17   1.4888011031515648e-17   1.8536843534423370e-17   1.6939837394528815e-17   1.9125027370174296e-17   2.3674270674398525e-17   2.4469038461501873e-17   3.5026454647629475e-17   3.4517411200387079e-17   5.0887061654371516e-17   4.9173374387330638e-17   7.1103345531849986e-17   6.8295783294803484e-17   9.5480612604819093e-17   9.1700478833356581e-17   1.2378409669661438e-16   1.1916206125751722e-16   1.5574122013275266e-16   1.5041606074773663e-16   1.9104421866498291e-16   1.8516148454478832e-16   2.2935310561676572e-16   2.2306371552851436e-16   2.7029894597388085e-16   2.6375773491568170e-16   3.1348740949975107e-16   3.0685163743388971e-16   3.5850256837456240e-16   3.5193040581490688e-16   4.0491090282670693e-16   3.9855990735405267e-16   4.5226547605948514e-16   4.4629107516918602e-16   5.0011023874042354e-16   4.9466423275735883e-16   5.4798442080220851e-16   5.4321352100086852e-16   5.9542696903514881e-16   5.9147138478232613e-16   6.4198098732668396e-16   6.3897307585872080e-16   6.8719813687356718e-16   6.8526112857468504e-16   7.3064295415213135e-16   7.2988976601716263e-16   7.7189704481051040e-16   7.7242919316365118e-16   8.1056311368067286e-16   8.1246973693602156e-16   8.4626879205551984e-16   8.4962579263542674e-16   8.7867022670211738e-16   8.8353954005319895e-16   9.0745539894252485e-16   9.1388439443029330e-16   9.3234715238159767e-16   9.4036816233228548e-16   9.5310593841928580e-16   9.6273587956772088e-16   9.6953240147474900e-16   9.8077232195349426e-16   9.8147037717156277e-16   9.9430420818732370e-16   9.8881246504608795e-16   1.0032021415508870e-15   9.9152077417763799e-16   1.0073826149540869e-15   9.8956001121991605e-16   1.0068072130659057e-15   9.6335155149991910e-16   1.0014353677377820e-15   9.7135132141856011e-16   9.4216923901094969e-16   9.5396433964348085e-16   9.4945961099032999e-16   9.3224582045646024e-16   9.2899909431073443e-16   9.0646257605161713e-16   9.0458853703950702e-16   8.7685990264176248e-16   8.7635326051754347e-16   8.4372353167613594e-16   8.4455918463705487e-16   8.0737298413164124e-16   8.0951266379687818e-16   7.6815852055537623e-16   7.7155158945184146e-16   7.2645788152812826e-16   7.3104181095668595e-16   6.8267270600068388e-16   6.8837362104598442e-16   6.3722468787998224e-16   6.4395803120396600e-16   5.9055152563460214e-16   5.9822284114210135e-16   5.4310271198092005e-16   5.5160853632663633e-16   4.9533520727769333e-16   5.0456405591013359e-16   4.4770903987284342e-16   4.5754247454968416e-16   4.0068287631226031e-16   4.1099664230849818e-16   3.5470960449481700e-16   3.6537482508841906e-16   3.1023197216898214e-16   3.2111638845469198e-16   2.6767832325692101e-16   2.7864756710560263e-16   2.2745847256388273e-16   2.3837736008404719e-16   1.8995975912622737e-16   2.0069359230631050e-16   1.5554331597769759e-16   1.6595917963619672e-16   1.2454059217000858e-16   1.3450863383969293e-16   9.7250160828080837e-17   1.0664484120777816e-16   7.3934843670002469e-17   8.2636145563560729e-17   5.4819179881000347e-17   6.2713763974147357e-17   4.0087263754802241e-17   4.7069560099051168e-17   2.9880971703141526e-17   3.5854196343041776e-17   2.4298595915008376e-17   2.9175682970482598e-17   2.3393897777421146e-17   2.7098337907284531e-17   2.7175590099821563e-17   2.9642167292021115e-17   3.5607253228635950e-17   3.6782672851935017e-17   4.8607685773693976e-17   4.8451087804560409e-17   6.6051686621006621e-17   6.4535039127261822e-17   8.7771260709192686e-17   8.4879629798232396e-17   1.1355723691242965e-16   1.0928893052433060e-16   1.4316128247030876e-16   1.3752786661131476e-16   1.7629829453782591e-16   1.6932448194077201e-16   2.1264914594691784e-16   2.0437255799869621e-16   2.5186375859663117e-16   2.4233456298551707e-16   2.9356447478980763e-16   2.8284490231533662e-16   3.3734969438774760e-16   3.2551343968318898e-16   3.8279774240728241e-16   3.6992925413689265e-16   4.2947093007312493e-16   4.1566459758315895e-16   4.7691976991921720e-16   4.6227901421262597e-16   5.2468730466620391e-16   5.0932358235651844e-16   5.7231350807715547e-16   5.5634523785872240e-16   6.1933971529508267e-16   6.0289113749692799e-16   6.6531304012950316e-16   6.4851302011089127e-16   7.0979073703815133e-16   6.9277152386041995e-16   7.5234446522458939e-16   7.3524041761590104e-16   7.9256441496088502e-16   7.7551070653285655e-16   8.3006325577160904e-16   8.1319457135532592e-16   8.6447987059596974e-16   8.4792910496539151e-16   8.9548284151867714e-16   8.7937980943071985e-16   9.2277366054933546e-16   9.0724382160275299e-16   9.4608964938104161e-16   9.3125283614944881e-16   9.6520659735479613e-16   9.5117569819492571e-16   9.7994115930036389e-16   9.6682063216700434e-16   9.9015299212991476e-16   9.7803704621173428e-16   9.9574517810191225e-16   9.8471671921194941e-16   9.9666064150014009e-16   9.8679446467807236e-16   9.9271009016680947e-16   9.8424160519124286e-16   9.6453940051922608e-16   9.7708604413029366e-16   9.4253807496199375e-16   9.1253041043598783e-16   9.2380325135457963e-16   9.1820165752542529e-16   9.0101396704513264e-16   8.9665136813491769e-16   8.7440367213062673e-16   8.7140521284675157e-16   8.4422232570152031e-16   8.4258490383241129e-16   8.1076150703518877e-16   8.1046904958924388e-16   7.7434365877556472e-16   7.7536703500791243e-16   7.3531962128327273e-16   7.3761681174903038e-16   6.9406529685146553e-16   6.9758190415928336e-16   6.5097803713146286e-16   6.5564788528132318e-16   6.0647282596219076e-16   6.1221862937550937e-16   5.6097829070897642e-16   5.6771240825577003e-16   5.1493257935974816e-16   5.2255785961109034e-16   4.6877914382097870e-16   4.7718985939963484e-16   4.2296247095573829e-16   4.3204533524925016e-16   3.7792380294073678e-16   3.8755905960506088e-16   3.3409688838186584e-16   3.4415946376953723e-16   2.9190380554857370e-16   3.0226451240105015e-16   2.5175089760820212e-16   2.6227767870920151e-16   2.1402485954556873e-16   2.2458405913345380e-16   1.7908901408464875e-16   1.8954666483544019e-16   1.4727981282106391e-16   1.5750292575921136e-16   1.1890359594487860e-16   1.2876144117870101e-16   9.4233642155055300e-17   1.0359900772791516e-16   7.3507536751543093e-17   8.2257953703651196e-17   5.6924883621063709e-17   6.4943805385891964e-17   4.4645382930195571e-17   5.1823307752974675e-17   3.6787293137994748e-17   4.3022818560621797e-17   3.3426292093808522e-17   3.8627091529356346e-17   3.4594748249529003e-17   3.8678460105893786e-17   4.0281408905824678e-17   4.3176429764564273e-17   5.0431508587948076e-17   5.2077682781093492e-17   6.4947296501946057e-17   6.5296495417903180e-17   8.3688977878104899e-17   8.2705563480629209e-17   1.0647606032910425e-16   1.0413722832316218e-16   1.3308909201315508e-16   1.2938509151590558e-16   1.6327177520896219e-16   1.5820600258150438e-16   1.9673343444646662e-16   1.9032240061303221e-16   2.3315181599654192e-16   2.2542498741945593e-16   2.7217619131316736e-16   2.6317570618384001e-16   3.1343073476743524e-16   3.0321099717811824e-16   3.5651814300121142e-16   3.4514529896244621e-16   4.0102346128417688e-16   3.8857476176938080e-16   4.4651807966174054e-16   4.3308113649818030e-16   4.9256386091906137e-16   4.7823580300696385e-16   5.3871735990751758e-16   5.2360389779183086e-16   5.8453409442031011e-16   5.6874850204983336e-16   6.2957282585961658e-16   6.1323484959764536e-16   6.7339980882676237e-16   6.5663451386984381e-16   7.1559296878005246e-16   6.9852953411898478e-16   7.5574596732887195e-16   7.3851644082132408e-16   7.9347211687224586e-16   7.7621014167576274e-16   8.2840810663107556e-16   8.1124763069283785e-16   8.6021750539666082e-16   8.4329148484176552e-16   8.8859400883591225e-16   8.7203311446513409e-16   9.1326440166028377e-16   8.9719573542234710e-16   9.3399120696138411e-16   9.1853703293590568e-16   9.5057498174005131e-16   9.3585148526069382e-16   9.6285615008332455e-16   9.4897231039863379e-16   9.7071601268245983e-16   9.5777298683664335e-16   9.7407567788555955e-16   9.6216829065791426e-16   9.7289591667088297e-16   9.6211557929013814e-16   9.6705561984597666e-16   9.5761056453335297e-16   9.3746017559285423e-16   9.4873472146034904e-16   9.0980240689293709e-16   8.7905731619166238e-16   8.8995217304076770e-16   8.8316276115406676e-16   8.6629043620661456e-16   8.6068668608939994e-16   8.3906965486212546e-16   8.3479933051812286e-16   8.0855186550237379e-16   8.0562231236497368e-16   7.7503247317341204e-16   7.7343709593876285e-16   7.3883431094517678e-16   7.3855341396579124e-16   7.0030597601460407e-16   7.0130718560142160e-16   6.5981852854969482e-16   6.6205707789320435e-16   6.1776190323030480e-16   6.2118106662054628e-16   5.7454114503083673e-16   5.7907280141067918e-16   5.3057250634790671e-16   5.3613780888942029e-16   4.8627943835338488e-16   4.9278958124321978e-16   4.4208851388134862e-16   4.4944559115940203e-16   3.9842532002825976e-16   4.0652326981389307e-16   3.5571036024309390e-16   3.6443598667354849e-16   3.1435500498073114e-16   3.2358906831691513e-16   2.7475753038737607e-16   2.8437589519958851e-16   2.3729928282211711e-16   2.4717411338657615e-16   2.0234100643673959e-16   2.1234199762522657e-16   1.7021936908245192e-16   1.8021500121454983e-16   1.4124372010804197e-16   1.5110252542314873e-16   1.1569311120458148e-16   1.2528493988312548e-16   9.3813608969395893e-17   1.0301088248070458e-16   7.5815925212512939e-17   8.4494864940708739e-17   6.1873387653948377e-17   6.9915206921007426e-17   5.2120270759697091e-17   5.9412318757762529e-17   4.6650502550770292e-17   5.3087349228655024e-17   4.5516760070490394e-17   5.1001211455904801e-17   4.8729962054999736e-17   5.3173996279290231e-17   5.6259163801786121e-17   5.9584778782602415e-17   6.8031855171769561e-17   7.0171819805830462e-17   8.3934658904011893e-17   8.4833160545996887e-17   1.0381442255280376e-16   1.0342760447121490e-16   1.2747969331412653e-16   1.2577607709473958e-16   1.5470256196512651e-16   1.5166335064355558e-16   1.8522085764203648e-16   1.8084011671460256e-16   2.1874067279093790e-16   2.1302538734591868e-16   2.5493919357110755e-16   2.4790920102311706e-16   2.9346780878413412e-16   2.8515560779298613e-16   3.3395546723660845e-16   3.2440590471564037e-16   3.7601225105017799e-16   3.6528209023925403e-16   4.1923313091218978e-16   4.0739050476105379e-16   4.6320186680506657e-16   4.5032562160771880e-16   5.0749501646656221e-16   4.9367395256109745e-16   5.5168601363277303e-16   5.3701803008160880e-16   5.9534927604571582e-16   5.7994042766034084e-16   6.3806430423857387e-16   6.2202777995127520e-16   6.7941973145133510e-16   6.6287476385005605e-16   7.1901728556416925e-16   7.0208800183423236e-16   7.5647562518795402e-16   7.3928985078956295e-16   7.9143401323091591e-16   7.7412203887768855e-16   8.2355579205398868e-16   8.0624911585340974e-16   8.5253162737860325e-16   8.3536168358710143e-16   8.7808248906814386e-16   8.6117937492039835e-16   8.9996233657858611e-16   8.8345355114481481e-16   9.1796047500189676e-16   9.0196969039773006e-16   9.3190353078222715e-16   9.1654943930748699e-16   9.4165696486688382e-16   9.2705230308304229e-16   9.4712601022885762e-16   9.3337696211082134e-16   9.4825570114894488e-16   9.3546223792680827e-16   9.4503341967226899e-16   9.3328850367094973e-16   9.3736069043008084e-16   9.2687317087590996e-16   9.0639263094326745e-16   9.1633388472927668e-16   8.7338567373224527e-16   8.4208473682736493e-16   8.5257324838174255e-16   8.4467205102520364e-16   8.2822012738327250e-16   8.2144934519874472e-16   8.0060425164348427e-16   7.9512608894268152e-16   7.6999041539433514e-16   7.6582253343141963e-16   7.3667462004758404e-16   7.3381995829243205e-16   7.0097780059257634e-16   6.9942604976118610e-16   6.6324373513894702e-16   6.6297208354999696e-16   6.2383581131957503e-16   6.2480915326502709e-16   5.8313354486413017e-16   5.8530478294607293e-16   5.4152892280772314e-16   5.4483941118244235e-16   4.9942262475383907e-16   5.0380273529600716e-16   4.5722016189139611e-16   4.6258995856592759e-16   4.1532797103209370e-16   4.2159798270823572e-16   3.7414949996017521e-16   3.8122158422947308e-16   3.3408132241806186e-16   3.4184961163512460e-16   2.9550931863976164e-16   3.0386124018076698e-16   2.5880495955135984e-16   2.6762232020073322e-16   2.2432172919642615e-16   2.3348185349991059e-16   1.9239172076204968e-16   2.0176863248273166e-16   1.6332243824487995e-16   1.7278807357726004e-16   1.3739383524796524e-16   1.4681927606884208e-16   1.1485561874780101e-16   1.2411233421457639e-16   9.5924844408304984e-17   1.0488592866525076e-16   8.0783826182348390e-17   8.9325220583257572e-17   6.9578380610311111e-17   7.7580068392907069e-17   6.2416422447608212e-17   6.9763584574299859e-17   5.9366925470306894e-17   6.5951046369235193e-17   6.0459258184211084e-17   6.6179170804509871e-17   6.5682901012583643e-17   7.0445761115565248e-17   7.4987547607683874e-17   7.8709727884221817e-17   8.8283589321241825e-17   9.0891484773685803e-17   1.0544297820769476e-16   1.0687371498018044e-16   1.2630046016187297e-16   1.2650250106545144e-16   1.5065516646383031e-16   1.4958880728216888e-16   1.7827254819762783e-16   1.7591030005340877e-16   2.0888663514530048e-16   2.0521348922362706e-16   2.4220259712891223e-16   2.3721616924817906e-16   2.7789958357443098e-16   2.7161013706065685e-16   3.1563381328865611e-16   3.0806416014546956e-16   3.5504188536750851e-16   3.4622716658498241e-16   3.9574427892228423e-16   3.8573162604012199e-16   4.3734900815278884e-16   4.2619708923342721e-16   4.7945539731614881e-16   4.6723385194529214e-16   5.2165793954225809e-16   5.0844670809745092e-16   5.6355020207644186e-16   5.4943875573534768e-16   6.0472874065917848e-16   5.8981521951444917e-16   6.4479698483584307e-16   6.2918725257193048e-16   6.8336905737137650e-16   6.6717568130627449e-16   7.2007349065610197e-16   7.0341465715074492e-16   7.5455680432454274e-16   7.3755517971967382e-16   7.8648690972400444e-16   7.6926845782639126e-16   8.1555630808801648e-16   7.9824907553343807e-16   8.4148505104114542e-16   8.2421793277712742e-16   8.6402343360706536e-16   8.4692493162941120e-16   8.8295438991585041e-16   8.6615138166453845e-16   8.9809556171550795e-16   8.8171210030953738e-16   9.0930100885183526e-16   8.9345718724120002e-16   9.1646253773129958e-16   9.0127345792508235e-16   9.1951065270138663e-16   9.0508553875257987e-16   9.1841475558697365e-16   9.0485664655407835e-16   9.1318455718594022e-16   9.0058979560544122e-16   9.0373392660979086e-16   8.9232281664203030e-16   8.7156507746113320e-16   8.8020701355825750e-16   8.3362511917518843e-16   8.0197075150413712e-16   8.1202044610890015e-16   8.0310073156835492e-16   7.8717095331526778e-16   7.7931929187393419e-16   7.5937877049737251e-16   7.5276994582104723e-16   7.2890911917177317e-16   7.2357046454740137e-16   6.9605637543276207e-16   6.9200024727986882e-16   6.6113708885056849e-16   6.5836260642789073e-16   6.2448759627480115e-16   6.2298149326081300e-16   5.8646085289882531e-16   5.8619767865452866e-16   5.4742307083040594e-16   5.4836542206341983e-16   5.0775020120878841e-16   5.0984906812430182e-16   4.6782431427878598e-16   4.7101954651955534e-16   4.2802991875852122e-16   4.3225080349963431e-16   3.8875025781323636e-16   3.9391620143591917e-16   3.5036361760340677e-16   3.5638492286832176e-16   3.1323968399139444e-16   3.2001841471656189e-16   2.7773598195557296e-16   2.8516690681683967e-16   2.4419443269405808e-16   2.5216603902142415e-16   2.1293806048054014e-16   2.2133362836361849e-16   1.8426788200229565e-16   1.9296660850495604e-16   1.5846000728007311e-16   1.6733816992434830e-16   1.3576298071699658e-16   1.4469512899365564e-16   1.1639538746330322e-16   1.2525555100789743e-16   1.0054374834540660e-16   1.0920665011483031e-16   8.8360723570838287e-17   9.6702986277091151e-17   7.9963642567472192e-17   8.7864976899881416e-17   7.5433374029121923e-17   8.2777737074463245e-17   7.4813547112623878e-17   8.1490259919081517e-17   7.8110131273857658e-17   8.4014944730230912e-17   8.5291378788699149e-17   9.0327477597705382e-17   9.6288130490514930e-17   1.0036706554550218e-16   1.1099448183982112e-16   1.1403702202907582e-16   1.2926880281075824e-16   1.3120569805112199e-16   1.5093510189148819e-16   1.5170775004161797e-16   1.7578472098321524e-16   1.7534573219710718e-16   2.0357834486966267e-16   2.0189199799645504e-16   2.3404830598967096e-16   2.3109089253557774e-16   2.6690116218365662e-16   2.6266121469530814e-16   3.0182052276628419e-16   2.9629892517579992e-16   3.3847009545806760e-16   3.3168007461202976e-16   3.7649692512614706e-16   3.6846392340922127e-16   4.1553479301077752e-16   4.0629622319007122e-16   4.5520774343073327e-16   4.4481262836882650e-16   4.9513370465708319e-16   4.8364220519014851e-16   5.3492816835782286e-16   5.2241100381612494e-16   5.7420789276273368e-16   5.6074565972272760e-16   6.1259459341506674e-16   5.9827698947366183e-16   6.4971858632175951e-16   6.3464354600559181e-16   6.8522234827542048e-16   6.6949509972489869e-16   7.1876395995914080e-16   7.0249601116058617e-16   7.5002039878799266e-16   7.3332846328100405e-16   7.7869064930987255e-16   7.6169552193253651e-16   8.0449860135462545e-16   7.8732399505783180e-16   8.2719570685377096e-16   8.0996706271112517e-16   8.4656336917592491e-16   8.2940665262635679e-16   8.6241503950125573e-16   8.4545553784858832e-16   8.7459799901347542e-16   8.5795913680828367e-16   8.8299481128897643e-16   8.6679699922845523e-16   8.8752444139343420e-16   8.7188396771302967e-16   8.8814303181082461e-16   8.7317101764207154e-16   8.8484376701625108e-16   8.7064578460293803e-16   8.7765690195783208e-16   8.6433350983519103e-16   8.6650843530142872e-16   8.5429179428133785e-16   8.3333725470604642e-16   8.4070358915480030e-16   7.9090480253994231e-16   7.5910189220380393e-16   7.6868455622320345e-16   7.5884955764061966e-16   7.4353862835263893e-16   7.3470245419261342e-16   7.1578989186113642e-16   7.0813892052415843e-16   6.8570279872381856e-16   6.7927322630287370e-16   6.5356787317560708e-16   6.4838092478886979e-16   6.1969471714425574e-16   6.1575867797649764e-16   5.8440960335347516e-16   5.8172060515383153e-16   5.4805236204082060e-16   5.4659452870350922e-16   5.1097313415755229e-16   5.1071874649076851e-16   4.7352901021514860e-16   4.7443876754009257e-16   4.3608059530369411e-16   4.3810398815303866e-16   3.9898853690486688e-16   4.0206433064807421e-16   3.6261005158692681e-16   3.6666687502875785e-16   3.272954