<?xml version="1.0"?>
<VTKFile type="UnstructuredGrid"  version="0.1"  >
<UnstructuredGrid>
<Piece  NumberOfPoints="25" NumberOfCells="32">
<Points>
<DataArray  type="Float64"  NumberOfComponents="3"  format="ascii">0 0 0  0.25 0 0  0.5 0 0  0.75 0 0  1 0 0  0 0.25 0  0.25 0.25 0  0.5 0.25 0  0.75 0.25 0  1 0.25 0  0 0.5 0  0.25 0.5 0  0.5 0.5 0  0.75 0.5 0  1 0.5 0  0 0.75 0  0.25 0.75 0  0.5 0.75 0  0.75 0.75 0  1 0.75 0  0 1 0  0.25 1 0  0.5 1 0  0.75 1 0  1 1 0  </DataArray>
</Points>
<Cells>
<DataArray  type="UInt32"  Name="connectivity"  format="ascii">0 1 6  0 5 6  1 2 7  1 6 7  2 3 8  2 7 8  3 4 9  3 8 9  5 6 11  5 10 11  6 7 12  6 11 12  7 8 13  7 12 13  8 9 14  8 13 14  10 11 16  10 15 16  11 12 17  11 16 17  12 13 18  12 17 18  13 14 19  13 18 19  15 16 21  15 20 21  16 17 22  16 21 22  17 18 23  17 22 23  18 19 24  18 23 24  </DataArray>
<DataArray  type="UInt32"  Name="offsets"  format="ascii">3 6 9 12 15 18 21 24 27 30 33 36 39 42 45 48 51 54 57 60 63 66 69 72 75 78 81 84 87 90 93 96 </DataArray>
<DataArray  type="UInt8"  Name="types"  format="ascii">5 5 5 5 5 5 5 5 5 5 5 5 5 5 5 5 5 5 5 5 5 5 5 5 5 5 5 5 5 5 5 5 </DataArray>
</Cells>
<CellData  Scalars="f_92"> 
<DataArray  type="Float64"  Name="f_92"  format="ascii">4.0624452119889148e-40   4.0624452119889148e-40   1.0203944017554588e-39   1.0203944017554588e-39   2.0726761285657757e-40   2.0726761285657757e-40   2.0407888035109179e-40   2.0407888035109179e-40   7.5764284330342815e-40   7.5764284330342815e-40   4.3880482360450355e-40   4.3876959275484697e-40   1.1944991965549831e-39   1.1945344274046396e-39   8.6733524149214005e-40   8.6733524149214005e-40   9.4386482162379806e-41   9.4386482162379806e-41   2.0644206549011677e-39   2.0643854240515112e-39   7.9113652349789070e-40   7.9117175434754720e-40   4.6746818530421947e-40   4.6746818530421947e-40   1.3265127222820953e-40   1.3265127222820953e-40   7.8572658940397885e-40   7.8570368935170208e-40   1.4540620225015274e-40   1.4542910230242950e-40   0.0000000000000000e+00   0.0000000000000000e+00   </DataArray> 
</CellData> 
</Piece>
</UnstructuredGrid>
</VTKFile>