<?xml version="1.0"?>
<VTKFile type="UnstructuredGrid"  version="0.1"  >
<UnstructuredGrid>
<Piece  NumberOfPoints="4225" NumberOfCells="8192">
<Points>
<DataArray  type="Float64"  NumberOfComponents="3"  format="ascii">0 0 0  0.015625 0 0  0.03125 0 0  0.046875 0 0  0.0625 0 0  0.078125 0 0  0.09375 0 0  0.109375 0 0  0.125 0 0  0.140625 0 0  0.15625 0 0  0.171875 0 0  0.1875 0 0  0.203125 0 0  0.21875 0 0  0.234375 0 0  0.25 0 0  0.265625 0 0  0.28125 0 0  0.296875 0 0  0.3125 0 0  0.328125 0 0  0.34375 0 0  0.359375 0 0  0.375 0 0  0.390625 0 0  0.40625 0 0  0.421875 0 0  0.4375 0 0  0.453125 0 0  0.46875 0 0  0.484375 0 0  0.5 0 0  0.515625 0 0  0.53125 0 0  0.546875 0 0  0.5625 0 0  0.578125 0 0  0.59375 0 0  0.609375 0 0  0.625 0 0  0.640625 0 0  0.65625 0 0  0.671875 0 0  0.6875 0 0  0.703125 0 0  0.71875 0 0  0.734375 0 0  0.75 0 0  0.765625 0 0  0.78125 0 0  0.796875 0 0  0.8125 0 0  0.828125 0 0  0.84375 0 0  0.859375 0 0  0.875 0 0  0.890625 0 0  0.90625 0 0  0.921875 0 0  0.9375 0 0  0.953125 0 0  0.96875 0 0  0.984375 0 0  1 0 0  0 0.015625 0  0.015625 0.015625 0  0.03125 0.015625 0  0.046875 0.015625 0  0.0625 0.015625 0  0.078125 0.015625 0  0.09375 0.015625 0  0.109375 0.015625 0  0.125 0.015625 0  0.140625 0.015625 0  0.15625 0.015625 0  0.171875 0.015625 0  0.1875 0.015625 0  0.203125 0.015625 0  0.21875 0.015625 0  0.234375 0.015625 0  0.25 0.015625 0  0.265625 0.015625 0  0.28125 0.015625 0  0.296875 0.015625 0  0.3125 0.015625 0  0.328125 0.015625 0  0.34375 0.015625 0  0.359375 0.015625 0  0.375 0.015625 0  0.390625 0.015625 0  0.40625 0.015625 0  0.421875 0.015625 0  0.4375 0.015625 0  0.453125 0.015625 0  0.46875 0.015625 0  0.484375 0.015625 0  0.5 0.015625 0  0.515625 0.015625 0  0.53125 0.015625 0  0.546875 0.015625 0  0.5625 0.015625 0  0.578125 0.015625 0  0.59375 0.015625 0  0.609375 0.015625 0  0.625 0.015625 0  0.640625 0.015625 0  0.65625 0.015625 0  0.671875 0.015625 0  0.6875 0.015625 0  0.703125 0.015625 0  0.71875 0.015625 0  0.734375 0.015625 0  0.75 0.015625 0  0.765625 0.015625 0  0.78125 0.015625 0  0.796875 0.015625 0  0.8125 0.015625 0  0.828125 0.015625 0  0.84375 0.015625 0  0.859375 0.015625 0  0.875 0.015625 0  0.890625 0.015625 0  0.90625 0.015625 0  0.921875 0.015625 0  0.9375 0.015625 0  0.953125 0.015625 0  0.96875 0.015625 0  0.984375 0.015625 0  1 0.015625 0  0 0.03125 0  0.015625 0.03125 0  0.03125 0.03125 0  0.046875 0.03125 0  0.0625 0.03125 0  0.078125 0.03125 0  0.09375 0.03125 0  0.109375 0.03125 0  0.125 0.03125 0  0.140625 0.03125 0  0.15625 0.03125 0  0.171875 0.03125 0  0.1875 0.03125 0  0.203125 0.03125 0  0.21875 0.03125 0  0.234375 0.03125 0  0.25 0.03125 0  0.265625 0.03125 0  0.28125 0.03125 0  0.296875 0.03125 0  0.3125 0.03125 0  0.328125 0.03125 0  0.34375 0.03125 0  0.359375 0.03125 0  0.375 0.03125 0  0.390625 0.03125 0  0.40625 0.03125 0  0.421875 0.03125 0  0.4375 0.03125 0  0.453125 0.03125 0  0.46875 0.03125 0  0.484375 0.03125 0  0.5 0.03125 0  0.515625 0.03125 0  0.53125 0.03125 0  0.546875 0.03125 0  0.5625 0.03125 0  0.578125 0.03125 0  0.59375 0.03125 0  0.609375 0.03125 0  0.625 0.03125 0  0.640625 0.03125 0  0.65625 0.03125 0  0.671875 0.03125 0  0.6875 0.03125 0  0.703125 0.03125 0  0.71875 0.03125 0  0.734375 0.03125 0  0.75 0.03125 0  0.765625 0.03125 0  0.78125 0.03125 0  0.796875 0.03125 0  0.8125 0.03125 0  0.828125 0.03125 0  0.84375 0.03125 0  0.859375 0.03125 0  0.875 0.03125 0  0.890625 0.03125 0  0.90625 0.03125 0  0.921875 0.03125 0  0.9375 0.03125 0  0.953125 0.03125 0  0.96875 0.03125 0  0.984375 0.03125 0  1 0.03125 0  0 0.046875 0  0.015625 0.046875 0  0.03125 0.046875 0  0.046875 0.046875 0  0.0625 0.046875 0  0.078125 0.046875 0  0.09375 0.046875 0  0.109375 0.046875 0  0.125 0.046875 0  0.140625 0.046875 0  0.15625 0.046875 0  0.171875 0.046875 0  0.1875 0.046875 0  0.203125 0.046875 0  0.21875 0.046875 0  0.234375 0.046875 0  0.25 0.046875 0  0.265625 0.046875 0  0.28125 0.046875 0  0.296875 0.046875 0  0.3125 0.046875 0  0.328125 0.046875 0  0.34375 0.046875 0  0.359375 0.046875 0  0.375 0.046875 0  0.390625 0.046875 0  0.40625 0.046875 0  0.421875 0.046875 0  0.4375 0.046875 0  0.453125 0.046875 0  0.46875 0.046875 0  0.484375 0.046875 0  0.5 0.046875 0  0.515625 0.046875 0  0.53125 0.046875 0  0.546875 0.046875 0  0.5625 0.046875 0  0.578125 0.046875 0  0.59375 0.046875 0  0.609375 0.046875 0  0.625 0.046875 0  0.640625 0.046875 0  0.65625 0.046875 0  0.671875 0.046875 0  0.6875 0.046875 0  0.703125 0.046875 0  0.71875 0.046875 0  0.734375 0.046875 0  0.75 0.046875 0  0.765625 0.046875 0  0.78125 0.046875 0  0.796875 0.046875 0  0.8125 0.046875 0  0.828125 0.046875 0  0.84375 0.046875 0  0.859375 0.046875 0  0.875 0.046875 0  0.890625 0.046875 0  0.90625 0.046875 0  0.921875 0.046875 0  0.9375 0.046875 0  0.953125 0.046875 0  0.96875 0.046875 0  0.984375 0.046875 0  1 0.046875 0  0 0.0625 0  0.015625 0.0625 0  0.03125 0.0625 0  0.046875 0.0625 0  0.0625 0.0625 0  0.078125 0.0625 0  0.09375 0.0625 0  0.109375 0.0625 0  0.125 0.0625 0  0.140625 0.0625 0  0.15625 0.0625 0  0.171875 0.0625 0  0.1875 0.0625 0  0.203125 0.0625 0  0.21875 0.0625 0  0.234375 0.0625 0  0.25 0.0625 0  0.265625 0.0625 0  0.28125 0.0625 0  0.296875 0.0625 0  0.3125 0.0625 0  0.328125 0.0625 0  0.34375 0.0625 0  0.359375 0.0625 0  0.375 0.0625 0  0.390625 0.0625 0  0.40625 0.0625 0  0.421875 0.0625 0  0.4375 0.0625 0  0.453125 0.0625 0  0.46875 0.0625 0  0.484375 0.0625 0  0.5 0.0625 0  0.515625 0.0625 0  0.53125 0.0625 0  0.546875 0.0625 0  0.5625 0.0625 0  0.578125 0.0625 0  0.59375 0.0625 0  0.609375 0.0625 0  0.625 0.0625 0  0.640625 0.0625 0  0.65625 0.0625 0  0.671875 0.0625 0  0.6875 0.0625 0  0.703125 0.0625 0  0.71875 0.0625 0  0.734375 0.0625 0  0.75 0.0625 0  0.765625 0.0625 0  0.78125 0.0625 0  0.796875 0.0625 0  0.8125 0.0625 0  0.828125 0.0625 0  0.84375 0.0625 0  0.859375 0.0625 0  0.875 0.0625 0  0.890625 0.0625 0  0.90625 0.0625 0  0.921875 0.0625 0  0.9375 0.0625 0  0.953125 0.0625 0  0.96875 0.0625 0  0.984375 0.0625 0  1 0.0625 0  0 0.078125 0  0.015625 0.078125 0  0.03125 0.078125 0  0.046875 0.078125 0  0.0625 0.078125 0  0.078125 0.078125 0  0.09375 0.078125 0  0.109375 0.078125 0  0.125 0.078125 0  0.140625 0.078125 0  0.15625 0.078125 0  0.171875 0.078125 0  0.1875 0.078125 0  0.203125 0.078125 0  0.21875 0.078125 0  0.234375 0.078125 0  0.25 0.078125 0  0.265625 0.078125 0  0.28125 0.078125 0  0.296875 0.078125 0  0.3125 0.078125 0  0.328125 0.078125 0  0.34375 0.078125 0  0.359375 0.078125 0  0.375 0.078125 0  0.390625 0.078125 0  0.40625 0.078125 0  0.421875 0.078125 0  0.4375 0.078125 0  0.453125 0.078125 0  0.46875 0.078125 0  0.484375 0.078125 0  0.5 0.078125 0  0.515625 0.078125 0  0.53125 0.078125 0  0.546875 0.078125 0  0.5625 0.078125 0  0.578125 0.078125 0  0.59375 0.078125 0  0.609375 0.078125 0  0.625 0.078125 0  0.640625 0.078125 0  0.65625 0.078125 0  0.671875 0.078125 0  0.6875 0.078125 0  0.703125 0.078125 0  0.71875 0.078125 0  0.734375 0.078125 0  0.75 0.078125 0  0.765625 0.078125 0  0.78125 0.078125 0  0.796875 0.078125 0  0.8125 0.078125 0  0.828125 0.078125 0  0.84375 0.078125 0  0.859375 0.078125 0  0.875 0.078125 0  0.890625 0.078125 0  0.90625 0.078125 0  0.921875 0.078125 0  0.9375 0.078125 0  0.953125 0.078125 0  0.96875 0.078125 0  0.984375 0.078125 0  1 0.078125 0  0 0.09375 0  0.015625 0.09375 0  0.03125 0.09375 0  0.046875 0.09375 0  0.0625 0.09375 0  0.078125 0.09375 0  0.09375 0.09375 0  0.109375 0.09375 0  0.125 0.09375 0  0.140625 0.09375 0  0.15625 0.09375 0  0.171875 0.09375 0  0.1875 0.09375 0  0.203125 0.09375 0  0.21875 0.09375 0  0.234375 0.09375 0  0.25 0.09375 0  0.265625 0.09375 0  0.28125 0.09375 0  0.296875 0.09375 0  0.3125 0.09375 0  0.328125 0.09375 0  0.34375 0.09375 0  0.359375 0.09375 0  0.375 0.09375 0  0.390625 0.09375 0  0.40625 0.09375 0  0.421875 0.09375 0  0.4375 0.09375 0  0.453125 0.09375 0  0.46875 0.09375 0  0.484375 0.09375 0  0.5 0.09375 0  0.515625 0.09375 0  0.53125 0.09375 0  0.546875 0.09375 0  0.5625 0.09375 0  0.578125 0.09375 0  0.59375 0.09375 0  0.609375 0.09375 0  0.625 0.09375 0  0.640625 0.09375 0  0.65625 0.09375 0  0.671875 0.09375 0  0.6875 0.09375 0  0.703125 0.09375 0  0.71875 0.09375 0  0.734375 0.09375 0  0.75 0.09375 0  0.765625 0.09375 0  0.78125 0.09375 0  0.796875 0.09375 0  0.8125 0.09375 0  0.828125 0.09375 0  0.84375 0.09375 0  0.859375 0.09375 0  0.875 0.09375 0  0.890625 0.09375 0  0.90625 0.09375 0  0.921875 0.09375 0  0.9375 0.09375 0  0.953125 0.09375 0  0.96875 0.09375 0  0.984375 0.09375 0  1 0.09375 0  0 0.109375 0  0.015625 0.109375 0  0.03125 0.109375 0  0.046875 0.109375 0  0.0625 0.109375 0  0.078125 0.109375 0  0.09375 0.109375 0  0.109375 0.109375 0  0.125 0.109375 0  0.140625 0.109375 0  0.15625 0.109375 0  0.171875 0.109375 0  0.1875 0.109375 0  0.203125 0.109375 0  0.21875 0.109375 0  0.234375 0.109375 0  0.25 0.109375 0  0.265625 0.109375 0  0.28125 0.109375 0  0.296875 0.109375 0  0.3125 0.109375 0  0.328125 0.109375 0  0.34375 0.109375 0  0.359375 0.109375 0  0.375 0.109375 0  0.390625 0.109375 0  0.40625 0.109375 0  0.421875 0.109375 0  0.4375 0.109375 0  0.453125 0.109375 0  0.46875 0.109375 0  0.484375 0.109375 0  0.5 0.109375 0  0.515625 0.109375 0  0.53125 0.109375 0  0.546875 0.109375 0  0.5625 0.109375 0  0.578125 0.109375 0  0.59375 0.109375 0  0.609375 0.109375 0  0.625 0.109375 0  0.640625 0.109375 0  0.65625 0.109375 0  0.671875 0.109375 0  0.6875 0.109375 0  0.703125 0.109375 0  0.71875 0.109375 0  0.734375 0.109375 0  0.75 0.109375 0  0.765625 0.109375 0  0.78125 0.109375 0  0.796875 0.109375 0  0.8125 0.109375 0  0.828125 0.109375 0  0.84375 0.109375 0  0.859375 0.109375 0  0.875 0.109375 0  0.890625 0.109375 0  0.90625 0.109375 0  0.921875 0.109375 0  0.9375 0.109375 0  0.953125 0.109375 0  0.96875 0.109375 0  0.984375 0.109375 0  1 0.109375 0  0 0.125 0  0.015625 0.125 0  0.03125 0.125 0  0.046875 0.125 0  0.0625 0.125 0  0.078125 0.125 0  0.09375 0.125 0  0.109375 0.125 0  0.125 0.12
[...]
<CellData  Scalars="f_176335"> 
<DataArray  type="Float64"  Name="f_176335"  format="ascii">1.1881215378246072e-10   1.1865705052225172e-10   1.1824057905153783e-10   1.1805557195638208e-10   1.1710288987330316e-10   1.1691748891213645e-10   1.1541004233678316e-10   1.1522682978078586e-10   1.1317833947293588e-10   1.1299834428297753e-10   1.1042927381872927e-10   1.1025336979294405e-10   1.0718932039265282e-10   1.0701831596361997e-10   1.0348968172906700e-10   1.0332432817956527e-10   9.9365987382104767e-11   9.9206977023143937e-11   9.4857950793646156e-11   9.4705912580013741e-11   9.0008986830957988e-11   8.9864481356953543e-11   8.4865793677587760e-11   8.4729308298500159e-11   7.9477903104175079e-11   7.9349847515088584e-11   7.3897203450341934e-11   7.3777905890405505e-11   6.8177439911564182e-11   6.8067144088745141e-11   6.2373696943557843e-11   6.2272559738351463e-11   5.6541867768865974e-11   5.6449957754618692e-11   5.0738116094610859e-11   5.0655412896981121e-11   4.5018335225343772e-11   4.4944729730996372e-11   3.9437609780027793e-11   3.9372905196299141e-11   3.4049685197109554e-11   3.3993598953213747e-11   2.8906450136648598e-11   2.8858616609456187e-11   2.4057436764226140e-11   2.4017410803304418e-11   1.9549343729190511e-11   1.9516604946716071e-11   1.5425586431225167e-11   1.5399544216425030e-11   1.1725878906384949e-11   1.1705878116198416e-11   8.4858513592989017e-12   8.4711786304561773e-12   5.7367070248987778e-12   5.7265976467067917e-12   3.5049216642754710e-12   3.4985669461091047e-12   1.8119885886984620e-12   1.8085436511106844e-12   6.7421166733516559e-13   6.7280358196434505e-13   1.0254831214066348e-13   1.0228451180587943e-13   1.0250395203980970e-13   1.0248083027984950e-13   6.7407901268394735e-13   6.7339062980293282e-13   1.8117689123867597e-12   1.8095157242066925e-12   3.5046170742869016e-12   3.4999145995590885e-12   5.7363204441975451e-12   5.7283077872474403e-12   8.4853864979472710e-12   8.4732346445057489e-12   1.1725340226131491e-11   1.1708260032237278e-11   1.5424979102932289e-11   1.5402228900548505e-11   1.9548673583476689e-11   1.9519566328904188e-11   2.4056710235805970e-11   2.4020620132586241e-11   2.8905674202888105e-11   2.8862042735215338e-11   3.4048867311376438e-11   3.3997208629950423e-11   3.9436757800474289e-11   3.9376663408995851e-11   4.5017457339770765e-11   4.4948600036817683e-11   5.0737220742139856e-11   5.0659357780668098e-11   5.6540963559122421e-11   5.6453938992792519e-11   6.2372792574148993e-11   6.2276538768227407e-11   6.8176544084582164e-11   6.8071082376449633e-11   7.3896324788674653e-11   7.3781765291359592e-11   7.9477050068403271e-11   7.9353590619385909e-11   8.4864974484185409e-11   8.4732898748997421e-11   9.0008209372582131e-11   8.9867884122229974e-11   9.4857222562210941e-11   9.4709094153165824e-11   9.9365315395383782e-11   9.9209905494901775e-11   1.0348907246163848e-10   1.0332697308940850e-10   1.0718877971216737e-10   1.0702064774700895e-10   1.1042880692936355e-10   1.1025535852407670e-10   1.1317795086718920e-10   1.1299995646182520e-10   1.1540973581167219e-10   1.1522803927458168e-10   1.1710266783515291e-10   1.1691783690654418e-10   1.1824045043331227e-10   1.1806036330000201e-10   1.1881210316257207e-10   1.1857830166940947e-10   1.1865841249495615e-10   1.1785440338050200e-10   1.1806134908993302e-10   1.1720149352135061e-10   1.1693060841240487e-10   1.1607558444341274e-10   1.1525013786484018e-10   1.1440446524725938e-10   1.1303459020652288e-10   1.1220209557664344e-10   1.1030517851031949e-10   1.0948969986276496e-10   1.0708816263687213e-10   1.0629340386012482e-10   1.0341451428661239e-10   1.0264398669921591e-10   9.9319608170429443e-11   9.8576591724844244e-11   9.4842878213570072e-11   9.4130388532324593e-11   9.0027436561033872e-11   8.9348195462991140e-11   8.4919657854210579e-11   8.4276066999692576e-11   7.9568732371115455e-11   7.8962850086861016e-11   7.4026192175410190e-11   7.3459713619049634e-11   6.8345414770867905e-11   6.7819655604083829e-11   6.2581109011921914e-11   6.2096992732157612e-11   5.6788788208010207e-11   5.6346837257584845e-11   5.1024235488823233e-11   5.0624566226095113e-11   4.5342966574902812e-11   4.4985288156202530e-11   3.9799695127287560e-11   3.9483312309526676e-11   3.4447805822177954e-11   3.4171625659930112e-11   2.9338840225782446e-11   2.9101382598176763e-11   2.4522000420294864e-11   2.4321412285882777e-11   2.0043675159886424e-11   1.9877748403351021e-11   1.5946993121573219e-11   1.5813185819595733e-11   1.2271407552402846e-11   1.2166868453994014e-11   9.0523163130431065e-12   8.9739122989135910e-12   6.3207209770137259e-12   6.2650672335089110e-12   4.1029282687717076e-12   4.0664208855574092e-12   2.4202967156142375e-12   2.3991473934481468e-12   1.2890309536701284e-12   1.2793034877486708e-12   7.2002566841800102e-13   7.1767385631235249e-13   7.1876067319901338e-13   7.1966728197341806e-13   1.2852481358065100e-12   1.2852645532013125e-12   2.4140324615248075e-12   2.4090186493512244e-12   4.0942428337172572e-12   4.0801071986693064e-12   6.3096979060164809e-12   6.2824367039131727e-12   9.0390616378294152e-12   8.9947975317626706e-12   1.2256048772205795e-11   1.2191068173504453e-11   1.5929677977869880e-11   1.5840466809810528e-11   2.0024570216392329e-11   1.9907847756741418e-11   2.4501289462199042e-11   2.4354039938254917e-11   2.9316722493420321e-11   2.9136224125728720e-11   3.4424494096146038e-11   3.4208345310645054e-11   3.9775413683564156e-11   3.9521556240381067e-11   4.5317949028500421e-11   4.5024687844088082e-11   5.0998722547524461e-11   5.0664742020012775e-11   5.6763025356402529e-11   5.6387402036488925e-11   6.2555344147131923e-11   6.2137555633194747e-11   6.8319895811546370e-11   6.7859825783189113e-11   7.4001164663124657e-11   7.3499104006646943e-11   7.9544437083730078e-11   7.9001081098527469e-11   8.4896328445449412e-11   8.4312770161892404e-11   9.0005297234414637e-11   8.9383016912013479e-11   9.4822141427061760e-11   9.4162992343148894e-11   9.9300472344815573e-11   9.8606663027325913e-11   1.0339716144469298e-10   1.0267123455240170e-10   1.0707275581343051e-10   1.0631756391182249e-10   1.1029185865040651e-10   1.0951053710401893e-10   1.1302347130662560e-10   1.1221940784951540e-10   1.1524131647432650e-10   1.1441811523961376e-10   1.1692372176428058e-10   1.1608506890965603e-10   1.1806177934960991e-10   1.1721296089048821e-10   1.1857818642237294e-10   1.1766335891507721e-10   1.1785840450396695e-10   1.1648501451005260e-10   1.1721670072933602e-10   1.1579094233884908e-10   1.1610730842933481e-10   1.1468867246991125e-10   1.1445785620637809e-10   1.1305128439592770e-10   1.1228210060794792e-10   1.1089414159234173e-10   1.0960100911881224e-10   1.0823818804492234e-10   1.0644040578258502e-10   1.0510901218181569e-10   1.0283072593816574e-10   1.0153674911036665e-10   9.8806730230704374e-11   9.7555800617967716e-11   9.4407170300089489e-11   9.3204504491882190e-11   8.9674415292957499e-11   8.8524765389650161e-11   8.4654043581816484e-11   8.3561651247540762e-11   7.9394403669754712e-11   7.8362959201956751e-11   7.3946148479226325e-11   7.2978755233350767e-11   6.8361747484406147e-11   6.7460891971525409e-11   6.2694981370464500e-11   6.1862509304622173e-11   5.7000424077435773e-11   5.6237522598361377e-11   5.1332917211870471e-11   5.0640103451674536e-11   4.5747041884811270e-11   4.5124157988221909e-11   4.0296593061397736e-11   3.9742807706626478e-11   3.5034061482977143e-11   3.4547877888482317e-11   3.0010128150797770e-11   2.9589398490652339e-11   2.5273176238974442e-11   2.4915122328276033e-11   2.0868825137434190e-11   2.0570065188037125e-11   1.6839491111822137e-11   1.6596072301216457e-11   1.3223978811315246e-11   1.3031415350838046e-11   1.0057107558633107e-11   9.9104238941853358e-12   7.3693760209011944e-12   7.2631547505615003e-12   5.1866684908557095e-12   5.1151025374701477e-12   3.5300056070475208e-12   3.4869541437323012e-12   2.4153419137249159e-12   2.3943895034827777e-12   1.8534122100217676e-12   1.8479305899973343e-12   1.8496281681692554e-12   1.8528400834910761e-12   2.4040262162868406e-12   2.4090706888359366e-12   3.5112671878381701e-12   3.5112655912297252e-12   5.1606877409171984e-12   5.1488100455026030e-12   7.3364030523348484e-12   7.3059336021524712e-12   1.0017459797402834e-11   9.9618619856590591e-12   1.3178037942265486e-11   1.3091017162508028e-11   1.6787699405216299e-11   1.6663263671826869e-11   2.0811681192397569e-11   2.0644198846751621e-11   2.5211230184811638e-11   2.4995484131440940e-11   2.9943976352631073e-11   2.9675214302599927e-11   3.4964340801895465e-11   3.4638321040299021e-11   4.0223974725052594e-11   3.9837006961168942e-11   4.5672225026563510e-11   4.5221205933945736e-11   5.1256622141080385e-11   5.0739065244652451e-11   5.6923385344376018e-11   5.6337444967717546e-11   6.2617940692551397e-11   6.1962429734076341e-11   6.8285446599850053e-11   6.7559847967969990e-11   7.3871321995799887e-11   7.3075793592249430e-11   7.9321771973642916e-11   7.8457145178987389e-11   8.4584305870686077e-11   8.3652077547196293e-11   8.9608242793293577e-11   8.8610560884211515e-11   9.4345199724302173e-11   9.3284842590136786e-11   9.8749557525765824e-11   9.7629907216707499e-11   1.0277890038482212e-10   1.0160391009403171e-10   1.0639442455165761e-10   1.0516858050224092e-10   1.0956131265933415e-10   1.0828959056303772e-10   1.1224906956265784e-10   1.1093688532107685e-10   1.1443183760019481e-10   1.1308499276257437e-10   1.1608817926257970e-10   1.1471275077446368e-10   1.1721090107833770e-10   1.1581484898485750e-10   1.1766158070216518e-10   1.1620154677675255e-10   1.1649298404487051e-10   1.1456598494893814e-10   1.1581957160795411e-10   1.1383697017189285e-10   1.1474581058455180e-10   1.1276720874463102e-10   1.1314455328476196e-10   1.1117777128652452e-10   1.1103080675634398e-10   1.0908536964834149e-10   1.0842509497816537e-10   1.0651027741375567e-10   1.0535252246709359e-10   1.0347729106307138e-10   1.0184267920695341e-10   1.0001562025535408e-10   9.7929365837460147e-11   9.6158602925249403e-11   9.3650268777436886e-11   9.1943384036228556e-11   8.9046597367299262e-11   8.7410558127183993e-11   8.4162686971218008e-11   8.2603778482689176e-11   7.9045571952193256e-11   7.7569336759387502e-11   7.3744532661267428e-11   7.2355717173570564e-11   6.8310620808634749e-11   6.7013129563439089e-11   6.2796167785876302e-11   6.1593025831672564e-11   5.7254280671500179e-11   5.6147604427561627e-11   5.1738330770868411e-11   5.0729307641239655e-11   4.6301439614998176e-11   4.5390316551328201e-11   4.0995967366899236e-11   4.0182048489297414e-11   3.5873008561703599e-11   3.5154661860046881e-11   3.0981900036457808e-11   3.0356573087580085e-11   2.6369745788282900e-11   2.5833990337174042e-11   2.2080963336099797e-11   2.1630468504817209e-11   1.8156855955385667e-11   1.7786489759018739e-11   1.4635214904605032e-11   1.4339073675453985e-11   1.1549955474509006e-11   1.1321420717706549e-11   8.9307903655030327e-12   8.7625924987887179e-12   6.8029435379058615e-12   6.6872319017926456e-12   5.1869072915954171e-12   5.1153257556145342e-12   4.0982449140551029e-12   4.0620123508454482e-12   3.5474407975036086e-12   3.5374356500102229e-12   3.5397994687105157e-12   3.5466475956706282e-12   4.0753945036391547e-12   4.0895594577826805e-12   5.1490678190886430e-12   5.1609426883439075e-12   6.7504793480615715e-12   6.7504792753507833e-12   8.8642066205893210e-12   8.8428611112349924e-12   1.1469893290742983e-11   1.1417937418510305e-11   1.4542445179770767e-11   1.4450908813137344e-11   1.8052271946936071e-11   1.7912566136331289e-11   2.1965572061177596e-11   2.1769571755312913e-11   2.6244658328755068e-11   2.5984780623185922e-11   3.0848320841829427e-11   3.0517598006567056e-11   3.5732223853073427e-11   3.5324370435615796e-11   4.0849332753745866e-11   4.0358806111523617e-11   4.6150367043339801e-11   4.5572420722517351e-11   5.1584274928707665e-11   5.0915004375492695e-11   5.7098724981919521e-11   5.6335105145968564e-11   6.2640610122075463e-11   6.1780524590235577e-11   6.8156559067867427e-11   6.7198820447544767e-11   7.3593450335557618e-11   7.2537811691842024e-11   7.8898923833477705e-11   7.7746081069654549e-11   8.4021885127473089e-11   8.2773470286321708e-11   8.8912997524376465e-11   8.7571563073372670e-11   9.3525157240484825e-11   9.2094151488938176e-11   9.7813947090377683e-11   9.6297680965430680e-11   1.0173806434916606e-10   1.0014166982226153e-10   1.0525971870067138e-10   1.0358909919642087e-10   1.0834499649940834e-10   1.0660676961892312e-10   1.1096418687172496e-10   1.0916561973177945e-10   1.1309208852158620e-10   1.1124102776132075e-10   1.1470773324864515e-10   1.1281248405358386e-10   1.1580594339794878e-10   1.1387674950738375e-10   1.1619696038512837e-10   1.1419400976011036e-10   1.1457922430530132e-10   1.1211607193334809e-10   1.1388288394613600e-10   1.1135798733701565e-10   1.1285607151273922e-10   1.1032957168076879e-10   1.1131950158647978e-10   1.0880206371578537e-10   1.0928935922553236e-10   1.0679327500958959e-10   1.0678531910763576e-10   1.0432260679678507e-10   1.0383149389349161e-10   1.0141384865479520e-10   1.0045633089691134e-10   9.8095015095839292e-11   9.6692334912758968e-11   9.4398068970382858e-11   9.2575755042356588e-11   9.0358614040222407e-11   8.8146235868325279e-11   8.6015552405952167e-11   8.3446435770896552e-11   8.1410709990383614e-11   7.8521616133786092e-11   7.6588433791138063e-11   7.3419205452579080e-11   7.1595164819303905e-11   6.8188342563443404e-11   6.6478990855126597e-11   6.2879403399682471e-11   6.1289183337230837e-11   5.7543515835815379e-11   5.6075722850421687e-11   5.2232067291946393e-11   5.0888817782603507e-11   4.6996209840327248e-11   4.5778420788625015e-11   4.1886367579680800e-11   4.0793747716569388e-11   3.6951751021064059e-11   3.5982803631285190e-11   3.2239883162320780e-11   3.1391920497770859e-11   2.7796141814470713e-11   2.7065310978347123e-11   2.3663322587881957e-11   2.3044642640094016e-11   1.9881226746444079e-11   1.9368636672807663e-11   1.6486277899704428e-11   1.6072694982588812e-11   1.3511171223062498e-11   1.3188559252088707e-11   1.0984558585555031e-11   1.0744005250533565e-11   8.9307726165223707e-12   8.7625753379618331e-12   7.3695923692570200e-12   7.2633517395150329e-12   6.3160528378733302e-12   6.2607727731885477e-12   5.7803001624117817e-12   5.7644938010578824e-12   5.7674939159025488e-12   5.7792942431131702e-12   6.2777574152008342e-12   6.3050315488558266e-12   7.3061765334909580e-12   7.3366425704315320e-12   8.8428470263227813e-12   8.8641923236963615e-12   1.0872969915023069e-11   1.0872969667786057e-11   1.3376994009335922e-11   1.3343628981678305e-11   1.6330804196333246e-11   1.6252376473434501e-11   1.9705953682400536e-11   1.9571199327661450e-11   2.3469937951962007e-11   2.3268135484766914e-11   2.7586507803933779e-11   2.7307581453252867e-11   3.2016018451982723e-11   3.1650635191456097e-11   3.6715811325985645e-11   3.6255470755964616e-11   4.1640624898077755e-11   4.1077741108905433e-11   4.6743030576678893e-11   4.6071005205232939e-11   5.1973889470901688e-11   5.1187175246205984e-11   5.7282825626189156e-11   5.6376979792716350e-11   6.2618711174275334e-11   6.1590438278049278e-11   6.7930158725080358e-11   6.6777342350589534e-11   7.3166016259423529e-11   7.1887739411707065e-11   7.8275859756822886e-11   7.6872413691758653e-11   8.3210478816066182e-11   8.1683360232905520e-11   8.7922350593318602e-11   8.6274247214132173e-11   9.2366097497602080e-11   9.0600862167594750e-11   9.6498924240652575e-11   9.4621537787354781e-11   1.0028103003644069e-10   9.8297553224863998e-11   1.0367599197536572e-10   1.0159350698584325e-10   1.0665111586916956e-10   1.0447765782313042e-10   1.0917775012386860e-10   1.0692222931299149e-10   1.1123158336615935e-10   1.0890370042033772e-10   1.1279231281618403e-10   1.1040242460751244e-10   1.1385682251344501e-10   1.1141730417757994e-10   1.1418522619996892e-10   1.1166070067635242e-10   1.1213583270154546e-10   1.0915892174641141e-10   1.1142486993485563e-10   1.0837780216301660e-10   1.1045613248807804e-10   1.0739924325871076e-10   1.0900035549491234e-10   1.0594704900679848e-10   1.0707463818681627e-10   1.0403992692326955e-10   1.0469758338463412e-10   1.0169623981606958e-10   1.0189207922624348e-10   9.8938555351907858e-11   9.8685145801980096e-11   9.5793432877630051e-11   9.5107668293714923e-11   9.2291162219421248e-11   9.1194099905642537e-11   8.8465472414212375e-11   8.6982130373305003e-11   8.4353207020958774e-11   8.2512323124582446e-11   7.9993969379408344e-11   7.7827724690703407e-11   7.5429741260122832e-11   7.2973450168472595e-11   7.0704478586256439e-11   6.7996248744624087e-11   6.5863688128462948e-11   6.2944053475900605e-11   6.0953989256799593e-11   5.7865519665978486e-11   5.6022664972788728e-11   5.2809556285283257e-11   5.1117206549518573e-11   4.7824854948955499e-11   4.6284856163596356e-11   4.2959420987439781e-11   4.1572151927315090e-11   3.8260111127995031e-11   3.7024479699911320e-11   3.3772182237217715e-11   3.2685635996691963e-11   2.9538855471924718e-11   2.8597406204072164e-11   2.5600900035350245e-11   2.4799162163094803e-11   2.1996240546875184e-11   2.1327482996726475e-11   1.8759591806955534e-11   1.8215802833023406e-11   1.5922124474637877e-11   1.5494088815695908e-11   1.3511164876831376e-11   1.3188552504516874e-11   1.1549931840906548e-11   1.1321397443376288e-11   1.0057313084805153e-11   9.9106053282613559e-12   9.0476833179966850e-12   8.9697628336951178e-12   8.5307658053003452e-12   8.5079307657788992e-12   8.5115387267579563e-12   8.5295568017838372e-12   8.9901872350762054e-12   9.0344326568316473e-12   9.9621016728238392e-12   1.0017696089850496e-11   1.1417921966078302e-11   1.1469877729936885e-11   1.3343627767341911e-11   1.3376992271679506e-11   1.5720673479415487e-11   1.5720673161687724e-11   1.8526166859892390e-11   1.8478349478666816e-11   2.1733089486302162e-11   2.1623463304102578e-11   2.5310556958772497e-11   2.5125725489986965e-11   2.9224116333874175e-11   2.8951407360019617e-11   3.3436077925973301e-11   3.3063665535846964e-11   3.7905878279993089e-11   3.7422896759396189e-11   4.2590470820316589e-11   4.1987119294611503e-11   4.7444740413824569e-11   4.6712377235156690e-11   5.2421937854160115e-11   5.1553163825020879e-11   5.7474130083666355e-11   5.6462859714514607e-11   6.2552661816777987e-11   6.1394181931954628e-11   6.7608624119484501e-11   6.6299639246474049e-11   7.2593325433023860e-11   7.1131989537735610e-11   7.7458760505225379e-11   7.5844694767134178e-11   8.2158072715121475e-11   8.0392369169413088e-11   8.6646005338597938e-11   8.4731216348335028e-11   9.0879337410750000e-11   8.8819451065892984e-11   9.4817299986059119e-11   9.2617701659273828e-11   9.8421968783737946e-11   9.6089389203657402e-11   1.0165862941797889e-10   9.9201079751886523e-11   1.0449611168460250e-10   1.0192280626726221e-10   1.0690708865443107e-10   1.0422835615299661e-10   1.0886836298878162e-10   1.0609554808058553e-10   1.1036048148457353e-10   1.0750579899618242e-10   1.1138243347603185e-10   1.0846020052399262e-10   1.1164642966666021e-10   1.0862598378896677e-10   1.0918639282858387e-10   1.0572303393342073e-10   1.0846913458980500e-10   1.0492510172123297e-10   1.0756911340355045e-10   1.0400444072203825e-10   1.0620946288962029e-10   1.0264021798408435e-10   1.0440797363895460e-10   1.0085183962455011e-10   1.0218199286934891e-10   9.8656470432864121e-11   9.9552954645276998e-11   9.6075250842362870e-11   9.6546179405756612e-11   9.3133040253642672e-11   9.3190624636457425e-11   8.9858174167453674e-11   8.9518606421450953e-11   8.6282191577435828e-11   8.5565488373596202e-11   8.2439531264997283e-11   8.1369341151243435e-11   7.8367200178131195e-11   7.6970575870525920e-11   7.4104417069445914e-11   7.2411554953761015e-11   6.9692234821380969e-11   6.773618