<?xml version="1.0"?>
<VTKFile type="UnstructuredGrid"  version="0.1"  >
<UnstructuredGrid>
<Piece  NumberOfPoints="4225" NumberOfCells="8192">
<Points>
<DataArray  type="Float64"  NumberOfComponents="3"  format="ascii">0 0 0  0.015625 0 0  0.03125 0 0  0.046875 0 0  0.0625 0 0  0.078125 0 0  0.09375 0 0  0.109375 0 0  0.125 0 0  0.140625 0 0  0.15625 0 0  0.171875 0 0  0.1875 0 0  0.203125 0 0  0.21875 0 0  0.234375 0 0  0.25 0 0  0.265625 0 0  0.28125 0 0  0.296875 0 0  0.3125 0 0  0.328125 0 0  0.34375 0 0  0.359375 0 0  0.375 0 0  0.390625 0 0  0.40625 0 0  0.421875 0 0  0.4375 0 0  0.453125 0 0  0.46875 0 0  0.484375 0 0  0.5 0 0  0.515625 0 0  0.53125 0 0  0.546875 0 0  0.5625 0 0  0.578125 0 0  0.59375 0 0  0.609375 0 0  0.625 0 0  0.640625 0 0  0.65625 0 0  0.671875 0 0  0.6875 0 0  0.703125 0 0  0.71875 0 0  0.734375 0 0  0.75 0 0  0.765625 0 0  0.78125 0 0  0.796875 0 0  0.8125 0 0  0.828125 0 0  0.84375 0 0  0.859375 0 0  0.875 0 0  0.890625 0 0  0.90625 0 0  0.921875 0 0  0.9375 0 0  0.953125 0 0  0.96875 0 0  0.984375 0 0  1 0 0  0 0.015625 0  0.015625 0.015625 0  0.03125 0.015625 0  0.046875 0.015625 0  0.0625 0.015625 0  0.078125 0.015625 0  0.09375 0.015625 0  0.109375 0.015625 0  0.125 0.015625 0  0.140625 0.015625 0  0.15625 0.015625 0  0.171875 0.015625 0  0.1875 0.015625 0  0.203125 0.015625 0  0.21875 0.015625 0  0.234375 0.015625 0  0.25 0.015625 0  0.265625 0.015625 0  0.28125 0.015625 0  0.296875 0.015625 0  0.3125 0.015625 0  0.328125 0.015625 0  0.34375 0.015625 0  0.359375 0.015625 0  0.375 0.015625 0  0.390625 0.015625 0  0.40625 0.015625 0  0.421875 0.015625 0  0.4375 0.015625 0  0.453125 0.015625 0  0.46875 0.015625 0  0.484375 0.015625 0  0.5 0.015625 0  0.515625 0.015625 0  0.53125 0.015625 0  0.546875 0.015625 0  0.5625 0.015625 0  0.578125 0.015625 0  0.59375 0.015625 0  0.609375 0.015625 0  0.625 0.015625 0  0.640625 0.015625 0  0.65625 0.015625 0  0.671875 0.015625 0  0.6875 0.015625 0  0.703125 0.015625 0  0.71875 0.015625 0  0.734375 0.015625 0  0.75 0.015625 0  0.765625 0.015625 0  0.78125 0.015625 0  0.796875 0.015625 0  0.8125 0.015625 0  0.828125 0.015625 0  0.84375 0.015625 0  0.859375 0.015625 0  0.875 0.015625 0  0.890625 0.015625 0  0.90625 0.015625 0  0.921875 0.015625 0  0.9375 0.015625 0  0.953125 0.015625 0  0.96875 0.015625 0  0.984375 0.015625 0  1 0.015625 0  0 0.03125 0  0.015625 0.03125 0  0.03125 0.03125 0  0.046875 0.03125 0  0.0625 0.03125 0  0.078125 0.03125 0  0.09375 0.03125 0  0.109375 0.03125 0  0.125 0.03125 0  0.140625 0.03125 0  0.15625 0.03125 0  0.171875 0.03125 0  0.1875 0.03125 0  0.203125 0.03125 0  0.21875 0.03125 0  0.234375 0.03125 0  0.25 0.03125 0  0.265625 0.03125 0  0.28125 0.03125 0  0.296875 0.03125 0  0.3125 0.03125 0  0.328125 0.03125 0  0.34375 0.03125 0  0.359375 0.03125 0  0.375 0.03125 0  0.390625 0.03125 0  0.40625 0.03125 0  0.421875 0.03125 0  0.4375 0.03125 0  0.453125 0.03125 0  0.46875 0.03125 0  0.484375 0.03125 0  0.5 0.03125 0  0.515625 0.03125 0  0.53125 0.03125 0  0.546875 0.03125 0  0.5625 0.03125 0  0.578125 0.03125 0  0.59375 0.03125 0  0.609375 0.03125 0  0.625 0.03125 0  0.640625 0.03125 0  0.65625 0.03125 0  0.671875 0.03125 0  0.6875 0.03125 0  0.703125 0.03125 0  0.71875 0.03125 0  0.734375 0.03125 0  0.75 0.03125 0  0.765625 0.03125 0  0.78125 0.03125 0  0.796875 0.03125 0  0.8125 0.03125 0  0.828125 0.03125 0  0.84375 0.03125 0  0.859375 0.03125 0  0.875 0.03125 0  0.890625 0.03125 0  0.90625 0.03125 0  0.921875 0.03125 0  0.9375 0.03125 0  0.953125 0.03125 0  0.96875 0.03125 0  0.984375 0.03125 0  1 0.03125 0  0 0.046875 0  0.015625 0.046875 0  0.03125 0.046875 0  0.046875 0.046875 0  0.0625 0.046875 0  0.078125 0.046875 0  0.09375 0.046875 0  0.109375 0.046875 0  0.125 0.046875 0  0.140625 0.046875 0  0.15625 0.046875 0  0.171875 0.046875 0  0.1875 0.046875 0  0.203125 0.046875 0  0.21875 0.046875 0  0.234375 0.046875 0  0.25 0.046875 0  0.265625 0.046875 0  0.28125 0.046875 0  0.296875 0.046875 0  0.3125 0.046875 0  0.328125 0.046875 0  0.34375 0.046875 0  0.359375 0.046875 0  0.375 0.046875 0  0.390625 0.046875 0  0.40625 0.046875 0  0.421875 0.046875 0  0.4375 0.046875 0  0.453125 0.046875 0  0.46875 0.046875 0  0.484375 0.046875 0  0.5 0.046875 0  0.515625 0.046875 0  0.53125 0.046875 0  0.546875 0.046875 0  0.5625 0.046875 0  0.578125 0.046875 0  0.59375 0.046875 0  0.609375 0.046875 0  0.625 0.046875 0  0.640625 0.046875 0  0.65625 0.046875 0  0.671875 0.046875 0  0.6875 0.046875 0  0.703125 0.046875 0  0.71875 0.046875 0  0.734375 0.046875 0  0.75 0.046875 0  0.765625 0.046875 0  0.78125 0.046875 0  0.796875 0.046875 0  0.8125 0.046875 0  0.828125 0.046875 0  0.84375 0.046875 0  0.859375 0.046875 0  0.875 0.046875 0  0.890625 0.046875 0  0.90625 0.046875 0  0.921875 0.046875 0  0.9375 0.046875 0  0.953125 0.046875 0  0.96875 0.046875 0  0.984375 0.046875 0  1 0.046875 0  0 0.0625 0  0.015625 0.0625 0  0.03125 0.0625 0  0.046875 0.0625 0  0.0625 0.0625 0  0.078125 0.0625 0  0.09375 0.0625 0  0.109375 0.0625 0  0.125 0.0625 0  0.140625 0.0625 0  0.15625 0.0625 0  0.171875 0.0625 0  0.1875 0.0625 0  0.203125 0.0625 0  0.21875 0.0625 0  0.234375 0.0625 0  0.25 0.0625 0  0.265625 0.0625 0  0.28125 0.0625 0  0.296875 0.0625 0  0.3125 0.0625 0  0.328125 0.0625 0  0.34375 0.0625 0  0.359375 0.0625 0  0.375 0.0625 0  0.390625 0.0625 0  0.40625 0.0625 0  0.421875 0.0625 0  0.4375 0.0625 0  0.453125 0.0625 0  0.46875 0.0625 0  0.484375 0.0625 0  0.5 0.0625 0  0.515625 0.0625 0  0.53125 0.0625 0  0.546875 0.0625 0  0.5625 0.0625 0  0.578125 0.0625 0  0.59375 0.0625 0  0.609375 0.0625 0  0.625 0.0625 0  0.640625 0.0625 0  0.65625 0.0625 0  0.671875 0.0625 0  0.6875 0.0625 0  0.703125 0.0625 0  0.71875 0.0625 0  0.734375 0.0625 0  0.75 0.0625 0  0.765625 0.0625 0  0.78125 0.0625 0  0.796875 0.0625 0  0.8125 0.0625 0  0.828125 0.0625 0  0.84375 0.0625 0  0.859375 0.0625 0  0.875 0.0625 0  0.890625 0.0625 0  0.90625 0.0625 0  0.921875 0.0625 0  0.9375 0.0625 0  0.953125 0.0625 0  0.96875 0.0625 0  0.984375 0.0625 0  1 0.0625 0  0 0.078125 0  0.015625 0.078125 0  0.03125 0.078125 0  0.046875 0.078125 0  0.0625 0.078125 0  0.078125 0.078125 0  0.09375 0.078125 0  0.109375 0.078125 0  0.125 0.078125 0  0.140625 0.078125 0  0.15625 0.078125 0  0.171875 0.078125 0  0.1875 0.078125 0  0.203125 0.078125 0  0.21875 0.078125 0  0.234375 0.078125 0  0.25 0.078125 0  0.265625 0.078125 0  0.28125 0.078125 0  0.296875 0.078125 0  0.3125 0.078125 0  0.328125 0.078125 0  0.34375 0.078125 0  0.359375 0.078125 0  0.375 0.078125 0  0.390625 0.078125 0  0.40625 0.078125 0  0.421875 0.078125 0  0.4375 0.078125 0  0.453125 0.078125 0  0.46875 0.078125 0  0.484375 0.078125 0  0.5 0.078125 0  0.515625 0.078125 0  0.53125 0.078125 0  0.546875 0.078125 0  0.5625 0.078125 0  0.578125 0.078125 0  0.59375 0.078125 0  0.609375 0.078125 0  0.625 0.078125 0  0.640625 0.078125 0  0.65625 0.078125 0  0.671875 0.078125 0  0.6875 0.078125 0  0.703125 0.078125 0  0.71875 0.078125 0  0.734375 0.078125 0  0.75 0.078125 0  0.765625 0.078125 0  0.78125 0.078125 0  0.796875 0.078125 0  0.8125 0.078125 0  0.828125 0.078125 0  0.84375 0.078125 0  0.859375 0.078125 0  0.875 0.078125 0  0.890625 0.078125 0  0.90625 0.078125 0  0.921875 0.078125 0  0.9375 0.078125 0  0.953125 0.078125 0  0.96875 0.078125 0  0.984375 0.078125 0  1 0.078125 0  0 0.09375 0  0.015625 0.09375 0  0.03125 0.09375 0  0.046875 0.09375 0  0.0625 0.09375 0  0.078125 0.09375 0  0.09375 0.09375 0  0.109375 0.09375 0  0.125 0.09375 0  0.140625 0.09375 0  0.15625 0.09375 0  0.171875 0.09375 0  0.1875 0.09375 0  0.203125 0.09375 0  0.21875 0.09375 0  0.234375 0.09375 0  0.25 0.09375 0  0.265625 0.09375 0  0.28125 0.09375 0  0.296875 0.09375 0  0.3125 0.09375 0  0.328125 0.09375 0  0.34375 0.09375 0  0.359375 0.09375 0  0.375 0.09375 0  0.390625 0.09375 0  0.40625 0.09375 0  0.421875 0.09375 0  0.4375 0.09375 0  0.453125 0.09375 0  0.46875 0.09375 0  0.484375 0.09375 0  0.5 0.09375 0  0.515625 0.09375 0  0.53125 0.09375 0  0.546875 0.09375 0  0.5625 0.09375 0  0.578125 0.09375 0  0.59375 0.09375 0  0.609375 0.09375 0  0.625 0.09375 0  0.640625 0.09375 0  0.65625 0.09375 0  0.671875 0.09375 0  0.6875 0.09375 0  0.703125 0.09375 0  0.71875 0.09375 0  0.734375 0.09375 0  0.75 0.09375 0  0.765625 0.09375 0  0.78125 0.09375 0  0.796875 0.09375 0  0.8125 0.09375 0  0.828125 0.09375 0  0.84375 0.09375 0  0.859375 0.09375 0  0.875 0.09375 0  0.890625 0.09375 0  0.90625 0.09375 0  0.921875 0.09375 0  0.9375 0.09375 0  0.953125 0.09375 0  0.96875 0.09375 0  0.984375 0.09375 0  1 0.09375 0  0 0.109375 0  0.015625 0.109375 0  0.03125 0.109375 0  0.046875 0.109375 0  0.0625 0.109375 0  0.078125 0.109375 0  0.09375 0.109375 0  0.109375 0.109375 0  0.125 0.109375 0  0.140625 0.109375 0  0.15625 0.109375 0  0.171875 0.109375 0  0.1875 0.109375 0  0.203125 0.109375 0  0.21875 0.109375 0  0.234375 0.109375 0  0.25 0.109375 0  0.265625 0.109375 0  0.28125 0.109375 0  0.296875 0.109375 0  0.3125 0.109375 0  0.328125 0.109375 0  0.34375 0.109375 0  0.359375 0.109375 0  0.375 0.109375 0  0.390625 0.109375 0  0.40625 0.109375 0  0.421875 0.109375 0  0.4375 0.109375 0  0.453125 0.109375 0  0.46875 0.109375 0  0.484375 0.109375 0  0.5 0.109375 0  0.515625 0.109375 0  0.53125 0.109375 0  0.546875 0.109375 0  0.5625 0.109375 0  0.578125 0.109375 0  0.59375 0.109375 0  0.609375 0.109375 0  0.625 0.109375 0  0.640625 0.109375 0  0.65625 0.109375 0  0.671875 0.109375 0  0.6875 0.109375 0  0.703125 0.109375 0  0.71875 0.109375 0  0.734375 0.109375 0  0.75 0.109375 0  0.765625 0.109375 0  0.78125 0.109375 0  0.796875 0.109375 0  0.8125 0.109375 0  0.828125 0.109375 0  0.84375 0.109375 0  0.859375 0.109375 0  0.875 0.109375 0  0.890625 0.109375 0  0.90625 0.109375 0  0.921875 0.109375 0  0.9375 0.109375 0  0.953125 0.109375 0  0.96875 0.109375 0  0.984375 0.109375 0  1 0.109375 0  0 0.125 0  0.015625 0.125 0  0.03125 0.125 0  0.046875 0.125 0  0.0625 0.125 0  0.078125 0.125 0  0.09375 0.125 0  0.109375 0.125 0  0.125 0.12
[...]
<CellData  Scalars="f_220304"> 
<DataArray  type="Float64"  Name="f_220304"  format="ascii">3.7634158435996451e-09   3.7518367044586924e-09   3.7010125507417587e-09   3.7834445970718246e-09   3.6238800787553468e-09   3.7121176792053762e-09   3.5309372750963043e-09   3.6232656826281764e-09   3.4228283314790139e-09   3.5184312976018634e-09   3.3005184224598297e-09   3.3987913427713493e-09   3.1651564503206193e-09   3.2655213221450284e-09   3.0180330920584630e-09   3.1199005107837883e-09   2.8605586990992726e-09   2.9633253501657435e-09   2.6942462281819032e-09   2.7972994481474977e-09   2.5206952271700752e-09   2.6234189020154294e-09   2.3415757607785836e-09   2.4433564323181875e-09   2.1586119889181754e-09   2.2588449153461119e-09   1.9735653792494936e-09   2.0716604704563544e-09   1.7882176390724707e-09   1.8836052153441586e-09   1.6043534944980872e-09   1.6964898250963518e-09   1.4237434641389363e-09   1.5121160389767111e-09   1.2481267832097524e-09   1.3322592732102255e-09   1.0791946378317444e-09   1.1586514995181255e-09   9.1857386675755368e-10   9.9296454921226645e-10   7.6781128681585852e-10   8.3679400137653462e-10   6.2835879093797368e-10   6.9164380947490225e-10   5.0155936184986476e-10   5.5891181160021893e-10   3.8863413583873089e-10   4.3987626493970768e-10   2.9067064052805525e-10   3.3568353249699231e-10   2.0861232023735732e-10   2.4733704100092333e-10   1.4324944889698461e-10   1.7568761576702601e-10   9.5211518657604901e-11   1.2142528588307065e-10   6.4961177013484597e-11   8.5072637732074242e-11   5.2789770872413946e-11   6.6979781770873608e-11   5.8814540541801465e-11   6.7320980256327856e-11   8.2977490376073988e-11   8.6092968630482095e-11   1.2504594725860865e-10   1.2311498673407895e-10   1.8461480127503000e-10   1.7803051936804936e-10   2.6111040706116429e-10   2.5031072955541765e-10   3.5379610823562334e-10   3.3925955130238061e-10   4.6177933183284581e-10   4.4402039320353197e-10   5.8402018408040151e-10   5.6358438714163143e-10   7.1934146480021741e-10   6.9680010465898700e-10   8.6644000471913856e-10   8.4238464518768041e-10   1.0238992148310486e-09   9.9893599100068504e-10   1.1902027291508508e-09   1.1649465088551706e-09   1.3637490069370628e-09   1.3388174687980065e-09   1.5428667561487131e-09   1.5188744404649728e-09   1.7258310273999768e-09   1.7033834177988870e-09   1.9108798251440836e-09   1.8905675175940250e-09   2.0962310743473328e-09   2.0786240905990395e-09   2.2800997803838121e-09   2.2657420807833440e-09   2.4607152153385477e-09   2.4501194650232357e-09   2.6363379660289411e-09   2.6299806053640750e-09   2.8052766769181899e-09   2.8035933476493976e-09   2.9659043269837640e-09   2.9692857004633192e-09   3.1166738796614921e-09   3.1254619368036608e-09   3.2561331515490526e-09   3.2706179631234766e-09   3.3829387478444098e-09   3.4033558147692003e-09   3.4958689156130017e-09   3.5223971484473370e-09   3.5938351711687903e-09   3.6265956337049639e-09   3.6758925971965007e-09   3.7149482010208961e-09   3.7412490156849708e-09   3.7866052538326067e-09   3.7892752693947203e-09   3.8408803343242807e-09   3.8195306204375010e-09   3.8772606776618595e-09   3.8318993216014513e-09   3.8954236619701427e-09   3.8272136948725063e-09   3.8952232318063447e-09   3.7390811331758989e-09   3.8773427061443024e-09   3.7634689156317566e-09   3.6536628278982027e-09   3.6982363236820874e-09   3.6823662855425021e-09   3.6161162440297389e-09   3.6052764062347567e-09   3.5178464411883865e-09   3.5125284937740862e-09   3.4046350827223870e-09   3.4047312865959585e-09   3.2776096759536583e-09   3.2829208613136556e-09   3.1379980197212352e-09   3.1483216846674164e-09   2.9871438670920600e-09   3.0022569182829263e-09   2.8264985992861585e-09   2.8461438727405080e-09   2.6576080929018437e-09   2.6814898104836858e-09   2.4820979317762695e-09   2.5098816555430201e-09   2.3016577031712915e-09   2.3329723454710608e-09   2.1180246609316843e-09   2.1524655345390215e-09   1.9329669417518285e-09   1.9700994242707459e-09   1.7482664988121200e-09   1.7876301126835272e-09   1.5657019129301390e-09   1.6068147122003088e-09   1.3870312455888086e-09   1.4293944362973039e-09   1.2139750940634532e-09   1.2570778287851021e-09   1.0482000119149018e-09   1.0915243073972617e-09   8.9130245232283862e-10   9.3432817734054627e-10   7.4479338906627478e-10   7.8700327476428504e-10   6.1008376090588884e-10   6.5096838352869128e-10   4.8847088119775594e-10   5.2753356965539016e-10   3.8112594217348785e-10   4.1788756263578184e-10   2.8908273446334407e-10   3.2308630550153367e-10   2.1322768981727081e-10   2.4404278420772679e-10   1.5429134382605934e-10   1.8151823468771588e-10   1.1284129967532097e-10   1.3611481020830288e-10   8.9276761555727580e-11   1.0826978229122688e-10   8.3824689759044673e-11   9.8251328866342872e-11   9.6537614710103604e-11   1.0615595120819303e-10   1.2729313090208848e-10   1.3190754430437410e-10   1.7579507560166309e-10   1.7525812950707223e-10   2.4157638098196509e-10   2.3579024251598952e-10   3.2400357202743540e-10   3.1292095347241946e-10   4.2228286735438707e-10   4.0590748077544314e-10   5.3546782334398177e-10   5.1385434418025663e-10   6.6246844875461684e-10   6.3572198857506138e-10   8.0206170214536720e-10   7.7033679511770981e-10   9.5290326945097022e-10   9.1640238340024990e-10   1.1135405105035944e-09   1.0725120960763456e-09   1.2824264479745598e-09   1.2371625451650806e-09   1.4579346652964778e-09   1.4087680901147441e-09   1.6383749685007331e-09   1.5856761070784488e-09   1.8220096630589387e-09   1.7661829047029024e-09   2.0070702869244432e-09   1.9485501300660283e-09   2.1917746399339945e-09   2.1310215092792526e-09   2.3743439448446803e-09   2.3118397602568072e-09   2.5530199747190815e-09   2.4892635155807968e-09   2.7260819814048690e-09   2.6615840918959716e-09   2.8918632627112503e-09   2.8271419466029516e-09   3.0487672075475921e-09   2.9843426620098412e-09   3.1952826691424046e-09   3.1316723085378925e-09   3.3299985197537974e-09   3.2677120403422609e-09   3.4516172668760550e-09   3.3911517958666244e-09   3.5589676432990519e-09   3.5008029888902773e-09   3.6510161946371483e-09   3.5956101110273621e-09   3.7268782004507813e-09   3.6746612194269812e-09   3.7858292449006037e-09   3.7371973651124904e-09   3.8273219074452792e-09   3.7826210890413324e-09   3.8510215140649774e-09   3.8105035910326697e-09   3.8569095993031677e-09   3.8205875966999299e-09   3.8453234142093470e-09   3.8127150426476516e-09   3.7382433237974965e-09   3.7874753765585026e-09   3.6571166698339474e-09   3.5416758321187627e-09   3.5860313050807049e-09   3.5650679473905890e-09   3.4994588995586850e-09   3.4834374677059612e-09   3.3979346626516827e-09   3.3870620050829325e-09   3.2823673932404559e-09   3.2767764892482564e-09   3.1539066200575004e-09   3.1535630132248955e-09   3.0138111898754933e-09   3.0185864207465630e-09   2.8634393526416211e-09   2.8731522816477003e-09   2.7042428979128966e-09   2.7186694584968306e-09   2.5377563909137070e-09   2.5566312110531088e-09   2.3655836956503071e-09   2.3886011577960087e-09   2.1893830644180227e-09   2.2161991687232849e-09   2.0108513925102662e-09   2.0410864223640452e-09   1.8317079722627827e-09   1.8649497804029132e-09   1.6536779759075149e-09   1.6894857436480532e-09   1.4784758573185462e-09   1.5163842200877418e-09   1.3077888472173890e-09   1.3473123069801604e-09   1.1432607050136478e-09   1.1838982655567797e-09   9.8647588806922312e-10   1.0277158561473443e-09   8.3894429142343399e-10   8.8026919024028471e-10   7.0208670523640605e-10   7.4297824940302232e-10   5.7722113028157080e-10   6.1716521215779194e-10   4.6555008422863720e-10   5.0404172178799614e-10   3.6814901959031264e-10   4.0469721770960630e-10   2.8595596582755928e-10   3.2008844359219276e-10   2.1976249501474431e-10   2.5103023339409778e-10   1.7020609821010704e-10   1.9818766367806855e-10   1.3776404564486926e-10   1.6206964853483409e-10   1.2274879007375362e-10   1.4302403799245116e-10   1.2530495746187292e-10   1.4123426800160010e-10   1.4540795399373513e-10   1.5671759355970070e-10   1.8286420269806970e-10   1.8932492232376476e-10   2.3731300762812266e-10   2.3874225028936483e-10   3.0823002731509959e-10   3.0449368560883510e-10   3.9493232446975708e-10   3.8594603137146695e-10   4.9658494260071503e-10   4.8231488363618918e-10   6.1220894710223895e-10   5.9267218505617776e-10   7.4069085263041048e-10   7.1595516265573462e-10   8.8079334590299474e-10   8.5097656213767704e-10   1.0311672019355828e-09   9.9643608197633739e-10   1.1903642766076716e-09   1.1509328949082798e-09   1.3568514530400202e-09   1.3129791386354060e-09   1.5290254051190827e-09   1.4810142437884011e-09   1.7052280378024957e-09   1.6534199628523147e-09   1.8837624543257390e-09   1.8285359535818413e-09   2.0629092968556574e-09   2.0046757684748507e-09   2.2409433036780207e-09   2.1801430955389596e-09   2.4161499227154046e-09   2.3532480942112037e-09   2.5868418232197228e-09   2.5223236696063890e-09   2.7513751449734598e-09   2.6857415277137405e-09   2.9081653321799195e-09   2.8419278605564790e-09   3.0557024023734215e-09   2.9893785081106434e-09   3.1925655093906569e-09   3.1266734565560873e-09   3.3174366770588044e-09   3.2524905366644270e-09   3.4291136067512743e-09   3.3656181989131890e-09   3.5265215145024812e-09   3.4649672552917939e-09   3.6087240650186572e-09   3.5495814924729469e-09   3.6749336771401116e-09   3.6186470631363279e-09   3.7245217784577246e-09   3.6715005066269932e-09   3.7570294125750342e-09   3.7076349603204912e-09   3.7721742153571845e-09   3.7267029635359493e-09   3.7698411456157259e-09   3.7285124321076804e-09   3.7498677683503084e-09   3.7129602945659528e-09   3.6368026368479400e-09   3.6808524333144619e-09   3.5339153362707551e-09   3.4151279710157929e-09   3.4585449328549599e-09   3.4326400197875787e-09   3.3682016400139317e-09   3.3474084833040679e-09   3.2641009896333166e-09   3.2483503358584846e-09   3.1470676843390826e-09   3.1364446426005148e-09   3.0182089586821118e-09   3.0127429978729148e-09   2.8787717517559052e-09   2.8784040502315497e-09   2.7301061772923497e-09   2.7347102015218374e-09   2.5736486844916846e-09   2.5830445092004557e-09   2.4109087301974867e-09   2.4248697474416181e-09   2.2434550588521119e-09   2.2617114690911942e-09   2.0729011343958078e-09   2.0951426493582628e-09   1.9008899092592915e-09   1.9267685531829628e-09   1.7290781701626509e-09   1.7582114270283038e-09   1.5591206744717611e-09   1.5910950133568227e-09   1.3926542636314789e-09   1.4270290104023261e-09   1.2312821270072346e-09   1.2675936339024324e-09   1.0765583778426940e-09   1.1143244396104406e-09   9.2997309448467866e-10   9.6869755950867753e-10   7.9293797458518922e-10   8.3211550224889019e-10   6.6677274279959296e-10   7.0589365568869442e-10   5.5269244187257550e-10   5.9124762484637722e-10   4.5179573217543614e-10   4.8928152911124353e-10   3.6505431118447023e-10   4.0097737107237862e-10   2.9330355560489710e-10   3.2718558082987194e-10   2.3723447639871578e-10   2.6861682678167840e-10   1.9738706367068488e-10   2.2583517202259480e-10   1.7414508638264164e-10   1.9925264243014004e-10   1.6773239625839735e-10   1.8912525873336700e-10   1.7821077190204186e-10   1.9555057099950345e-10   2.0547932369017110e-10   2.1846671908987146e-10   2.4927546525095786e-10   2.5765302835252080e-10   3.0917744220176892e-10   3.1273213476967917e-10   3.8460839371398092e-10   3.8317361892279048e-10   4.7484190771772826e-10   4.6829911404832541e-10   5.7900901648761144e-10   5.6728883894700768e-10   6.9610656498800111e-10   6.7918949245960388e-10   8.2500687148150565e-10   8.0292343417081508e-10   9.6446858727114771e-10   9.3729906194254062e-10   1.1131486509439200e-09   1.0810222876489119e-09   1.2696152225659773e-09   1.2327089995544134e-09   1.4323614725225004e-09   1.3908983907823883e-09   1.5998200914759526e-09   1.5540670277166130e-09   1.7703783847494697e-09   1.7206435212111334e-09   1.9423938020992491e-09   1.8890236582247467e-09   2.1142097553735404e-09   2.0575858515140094e-09   2.2841715721920705e-09   2.2247067560186266e-09   2.4506424313468618e-09   2.3887769018074239e-09   2.6120191274396745e-09   2.5482161954306011e-09   2.7667475145212229e-09   2.7014891380752527e-09   2.9133374821553619e-09   2.8471196173923180e-09   3.0503773236781339e-09   2.9837051288706353e-09   3.1765473681780431e-09   3.1099302948243416e-09   3.2906327575757674e-09   3.2245795494338667e-09   3.3915352762637444e-09   3.3265488725316342e-09   3.4782841619981578e-09   3.4148564554086185e-09   3.5500458441611327e-09   3.4886521819261493e-09   3.6061324911935980e-09   3.5472257761747973e-09   3.6460088076999620e-09   3.5900133684113438e-09   3.6692949507661444e-09   3.6166019852466526e-09   3.6757596329232446e-09   3.6267309245832058e-09   3.6653134401439560e-09   3.6202901307827214e-09   3.6379452115539744e-09   3.5972702401494700e-09   3.5198030541315499e-09   3.5586583245020415e-09   3.3960077421948832e-09   3.2749768471322401e-09   3.3170263134589827e-09   3.2866024749346000e-09   3.2238042686746885e-09   3.1984171219881222e-09   3.1179413424391681e-09   3.0975326747706962e-09   3.0003278794186477e-09   2.9849361914466760e-09   2.8720577202629486e-09   2.8617222489124955e-09   2.7343560328915334e-09   2.7290580414957953e-09   2.5885489110647903e-09   2.5882079787985530e-09   2.4360427282280689e-09   2.4405229347915684e-09   2.2783082611706548e-09   2.2874238910542947e-09   2.1168660777363370e-09   2.1303856791710305e-09   1.9532719536299204e-09   1.9709215139913226e-09   1.7891020326813499e-09   1.8105679392081080e-09   1.6259377698445819e-09   1.6508698970188895e-09   1.4653507849885253e-09   1.4933658448552601e-09   1.3088877831981280e-09   1.3395729721968273e-09   1.1580556944186891e-09   1.1909726256705352e-09   1.0143071830850948e-09   1.0489960724990022e-09   8.7902667198580078e-10   9.1501073958744886e-10   7.5351701881132808e-10   7.9030706011854146e-10   6.3898697408282653e-10   6.7608605702162362e-10   5.3653954418041738e-10   5.7344778431372700e-10   4.4716137059798317e-10   4.8338073790729998e-10   3.7171322997412090e-10   4.0675233972084743e-10   3.1092174500131689e-10   3.4430058622174190e-10   2.6537238734760978e-10   2.9662694261851711e-10   2.3550383961896567e-10   2.6419055170655225e-10   2.2160377074375700e-10   2.4730381268363336e-10   2.2380606575508430e-10   2.4612937314453304e-10   2.4208953639464077e-10   2.6067856288758895e-10   2.7627812516936407e-10   2.9081128501979318e-10   3.2604260074081266e-10   3.3623736515236653e-10   3.9090372857590552e-10   3.9651934595493992e-10   4.7023688595368352e-10   4.7107669993182395e-10   5.6327807729709426e-10   5.5919142012824384e-10   6.6913129162294439e-10   6.6001493459673781e-10   7.8677713122968606e-10   7.7257627843312906e-10   9.1508262858258842e-10   8.9579144428082518e-10   1.0528121574305443e-09   1.0284738215648958e-09   1.1986393311629535e-09   1.1693456238324351e-09   1.3511597773306770e-09   1.3170501938723504e-09   1.5089046606364505e-09   1.4701650686388924e-09   1.6703548289011037e-09   1.6272156776215225e-09   1.8339554417696349e-09   1.7866895436509965e-09   1.9981309456238604e-09   1.9470508475896214e-09   2.1613002444701256e-09   2.1067552191171291e-09   2.3218919291475679e-09   2.2642646096508531e-09   2.4783594101968563e-09   2.4180621041673736e-09   2.6291958161702720e-09   2.5666665306935618e-09   2.7729485104039150e-09   2.7086467262774919e-09   2.9082330919493697e-09   2.8426353222868825e-09   3.0337467465487762e-09   2.9673419167339585e-09   3.1482808256722270e-09   3.0815655077480610e-09   3.2507325371726240e-09   3.1842060649109828e-09   3.3401156409814865e-09   3.2742751262015978e-09   3.4155700312895646e-09   3.3509053026696399e-09   3.4763700438596767e-09   3.4133585714071127e-09   3.5219311547041451e-09   3.4610332075755994e-09   3.5518143260247305e-09   3.4934691583456110e-09   3.5657266293787277e-09   3.5103516075535491e-09   3.5635174351298884e-09   3.5115124800383389e-09   3.5451946900331545e-09   3.4969317162488518e-09   3.5108738797693285e-09   3.4666935118369339e-09   3.3881731771630484e-09   3.4219178502194616e-09   3.2449274522003603e-09   3.1224926199662656e-09   3.1628813300085812e-09   3.1283988853715997e-09   3.0676160949482208e-09   3.0379358816968045e-09   2.9608721544557566e-09   2.9360419976476054e-09   2.8436047945141608e-09   2.8236700979093300e-09   2.7169149915690255e-09   2.7019244613935774e-09   2.5820084546239245e-09   2.5719700639507941e-09   2.4401793401182369e-09   2.4350493525312148e-09   2.2927926151927257e-09   2.2924750098296900e-09   2.1412682164544110e-09   2.1456172296210902e-09   1.9870662449192142e-09   1.9958893471644001e-09   1.8316725151233979e-09   1.8447332622989015e-09   1.6765841517249544e-09   1.6936049899115787e-09   1.5232951790636979e-09   1.5439603638499569e-09   1.3732821660451585e-09   1.3972409038978038e-09   1.2279900398435119e-09   1.2548598970555244e-09   1.0888181976788816e-09   1.1181887840038306e-09   9.5710704992826742e-10   9.8854396083023419e-10   8.3412512542190201e-10   8.6717411221693950e-10   7.2105686500951990e-10   7.5524819739156255e-10   6.1899122138224714e-10   6.5384420061672651e-10   5.2891117683452318e-10   5.6393875660418968e-10   4.5168427961777853e-10   4.8639775015655489e-10   3.8805429146793488e-10   4.2196798080932870e-10   3.3863402603408463e-10   3.7126997362676908e-10   3.0389944852698617e-10   3.3479200505580215e-10   2.8418509237405305e-10   3.1288540199598891e-10   2.7968083806213092e-10   3.0576115939114134e-10   2.9043008479960429e-10   3.1348790880938276e-10   3.1632933269748023e-10   3.3599125797318155e-10   3.5712917955893675e-10   3.7305450750146379e-10   4.1243672275672559e-10   4.2432073789180135e-10   4.8171934312188512e-10   4.8929624702859870e-10   5.6430983393557693e-10   5.6735530452959228e-10   6.5941282668972710e-10   6.5774617800163987e-10   7.6611245013157343e-10   7.5959837206667728e-10   8.8338115082308427e-10   8.7193101189041992e-10   1.0100895881812768e-09   9.9366228864165748e-10   1.1450175104514856e-09   1.1236198781274397e-09   1.2868655058741002e-09   1.2605522299725250e-09   1.4342675159919581e-09   1.4031406205169180e-09   1.5858039912473580e-09   1.5500118522510085e-09   1.7400155612491916e-09   1.6997514779512838e-09   1.8954170888846393e-09   1.8509174216752313e-09   2.0505119722440199e-09   2.0020538666517195e-09   2.2038065580523011e-09   2.1517052749781214e-09   2.3538245266436147e-09   2.2984304047980521e-09   2.4991211108399537e-09   2.4408161897864849e-09   2.6382970128458020e-09   2.5774913485252023e-09   2.7700118847128145e-09   2.7071395903409629e-09   2.8929972448764538e-09   2.8285122929232458e-09   3.0060687062850127e-09   2.9404405270371018e-09   3.1081373980184694e-09   3.0418463127488437e-09   3.1982204674803441e-09   3.1317529942626870e-09   3.2754505458166189e-09   3.2092946273757756e-09   3.3390840434429009e-09   3.2737242736817688e-09   3.3885080948365104e-09   3.3244210971684585e-09   3.4232458717745780e-09   3.3608961504103526e-09   3.4429598841622638e-09   3.3827967488114173e-09   3.4474531249384184e-09   3.3899093892614488e-09   3.4366696492173281e-09   3.3821612900835403e-09   3.4107169729821300e-09   3.3596225561360039e-09   3.3697750601951681e-09   3.3224633040110790e-09   3.2431857142275145e-09   3.2719100444593674e-09   3.0821609220243492e-09   2.9591128861072727e-09   2.9976536453663995e-09   2.9595575545768574e-09   2.9011265397155431e-09   2.8675331039985262e-09   2.7943783020439165e-09   2.7654408376345843e-09   2.6783919436933857e-09   2.6541900221165252e-09   2.5542704654681028e-09   2.5348741638751549e-09   2.4231979055615272e-09   2.4086411255552107e-09   2.2864303903420725e-09   2.2767018006013743e-09   2.1452823919810744e-09   2.1403224192987278e-09   2.0011124345873280e-09   2.0008134684042972e-09   1.8553089763314983e-09   1.8595169312593680e-09   1.7092765041754649e-09   1.7177929097138191e-09   1.5644217677314049e-09   1.5770061275964754e-09   1.4221401388844161e-09   1.4385125242204352e-09   1.283802