<?xml version="1.0"?>
<VTKFile type="UnstructuredGrid"  version="0.1"  >
<UnstructuredGrid>
<Piece  NumberOfPoints="4225" NumberOfCells="8192">
<Points>
<DataArray  type="Float64"  NumberOfComponents="3"  format="ascii">0 0 0  0.015625 0 0  0.03125 0 0  0.046875 0 0  0.0625 0 0  0.078125 0 0  0.09375 0 0  0.109375 0 0  0.125 0 0  0.140625 0 0  0.15625 0 0  0.171875 0 0  0.1875 0 0  0.203125 0 0  0.21875 0 0  0.234375 0 0  0.25 0 0  0.265625 0 0  0.28125 0 0  0.296875 0 0  0.3125 0 0  0.328125 0 0  0.34375 0 0  0.359375 0 0  0.375 0 0  0.390625 0 0  0.40625 0 0  0.421875 0 0  0.4375 0 0  0.453125 0 0  0.46875 0 0  0.484375 0 0  0.5 0 0  0.515625 0 0  0.53125 0 0  0.546875 0 0  0.5625 0 0  0.578125 0 0  0.59375 0 0  0.609375 0 0  0.625 0 0  0.640625 0 0  0.65625 0 0  0.671875 0 0  0.6875 0 0  0.703125 0 0  0.71875 0 0  0.734375 0 0  0.75 0 0  0.765625 0 0  0.78125 0 0  0.796875 0 0  0.8125 0 0  0.828125 0 0  0.84375 0 0  0.859375 0 0  0.875 0 0  0.890625 0 0  0.90625 0 0  0.921875 0 0  0.9375 0 0  0.953125 0 0  0.96875 0 0  0.984375 0 0  1 0 0  0 0.015625 0  0.015625 0.015625 0  0.03125 0.015625 0  0.046875 0.015625 0  0.0625 0.015625 0  0.078125 0.015625 0  0.09375 0.015625 0  0.109375 0.015625 0  0.125 0.015625 0  0.140625 0.015625 0  0.15625 0.015625 0  0.171875 0.015625 0  0.1875 0.015625 0  0.203125 0.015625 0  0.21875 0.015625 0  0.234375 0.015625 0  0.25 0.015625 0  0.265625 0.015625 0  0.28125 0.015625 0  0.296875 0.015625 0  0.3125 0.015625 0  0.328125 0.015625 0  0.34375 0.015625 0  0.359375 0.015625 0  0.375 0.015625 0  0.390625 0.015625 0  0.40625 0.015625 0  0.421875 0.015625 0  0.4375 0.015625 0  0.453125 0.015625 0  0.46875 0.015625 0  0.484375 0.015625 0  0.5 0.015625 0  0.515625 0.015625 0  0.53125 0.015625 0  0.546875 0.015625 0  0.5625 0.015625 0  0.578125 0.015625 0  0.59375 0.015625 0  0.609375 0.015625 0  0.625 0.015625 0  0.640625 0.015625 0  0.65625 0.015625 0  0.671875 0.015625 0  0.6875 0.015625 0  0.703125 0.015625 0  0.71875 0.015625 0  0.734375 0.015625 0  0.75 0.015625 0  0.765625 0.015625 0  0.78125 0.015625 0  0.796875 0.015625 0  0.8125 0.015625 0  0.828125 0.015625 0  0.84375 0.015625 0  0.859375 0.015625 0  0.875 0.015625 0  0.890625 0.015625 0  0.90625 0.015625 0  0.921875 0.015625 0  0.9375 0.015625 0  0.953125 0.015625 0  0.96875 0.015625 0  0.984375 0.015625 0  1 0.015625 0  0 0.03125 0  0.015625 0.03125 0  0.03125 0.03125 0  0.046875 0.03125 0  0.0625 0.03125 0  0.078125 0.03125 0  0.09375 0.03125 0  0.109375 0.03125 0  0.125 0.03125 0  0.140625 0.03125 0  0.15625 0.03125 0  0.171875 0.03125 0  0.1875 0.03125 0  0.203125 0.03125 0  0.21875 0.03125 0  0.234375 0.03125 0  0.25 0.03125 0  0.265625 0.03125 0  0.28125 0.03125 0  0.296875 0.03125 0  0.3125 0.03125 0  0.328125 0.03125 0  0.34375 0.03125 0  0.359375 0.03125 0  0.375 0.03125 0  0.390625 0.03125 0  0.40625 0.03125 0  0.421875 0.03125 0  0.4375 0.03125 0  0.453125 0.03125 0  0.46875 0.03125 0  0.484375 0.03125 0  0.5 0.03125 0  0.515625 0.03125 0  0.53125 0.03125 0  0.546875 0.03125 0  0.5625 0.03125 0  0.578125 0.03125 0  0.59375 0.03125 0  0.609375 0.03125 0  0.625 0.03125 0  0.640625 0.03125 0  0.65625 0.03125 0  0.671875 0.03125 0  0.6875 0.03125 0  0.703125 0.03125 0  0.71875 0.03125 0  0.734375 0.03125 0  0.75 0.03125 0  0.765625 0.03125 0  0.78125 0.03125 0  0.796875 0.03125 0  0.8125 0.03125 0  0.828125 0.03125 0  0.84375 0.03125 0  0.859375 0.03125 0  0.875 0.03125 0  0.890625 0.03125 0  0.90625 0.03125 0  0.921875 0.03125 0  0.9375 0.03125 0  0.953125 0.03125 0  0.96875 0.03125 0  0.984375 0.03125 0  1 0.03125 0  0 0.046875 0  0.015625 0.046875 0  0.03125 0.046875 0  0.046875 0.046875 0  0.0625 0.046875 0  0.078125 0.046875 0  0.09375 0.046875 0  0.109375 0.046875 0  0.125 0.046875 0  0.140625 0.046875 0  0.15625 0.046875 0  0.171875 0.046875 0  0.1875 0.046875 0  0.203125 0.046875 0  0.21875 0.046875 0  0.234375 0.046875 0  0.25 0.046875 0  0.265625 0.046875 0  0.28125 0.046875 0  0.296875 0.046875 0  0.3125 0.046875 0  0.328125 0.046875 0  0.34375 0.046875 0  0.359375 0.046875 0  0.375 0.046875 0  0.390625 0.046875 0  0.40625 0.046875 0  0.421875 0.046875 0  0.4375 0.046875 0  0.453125 0.046875 0  0.46875 0.046875 0  0.484375 0.046875 0  0.5 0.046875 0  0.515625 0.046875 0  0.53125 0.046875 0  0.546875 0.046875 0  0.5625 0.046875 0  0.578125 0.046875 0  0.59375 0.046875 0  0.609375 0.046875 0  0.625 0.046875 0  0.640625 0.046875 0  0.65625 0.046875 0  0.671875 0.046875 0  0.6875 0.046875 0  0.703125 0.046875 0  0.71875 0.046875 0  0.734375 0.046875 0  0.75 0.046875 0  0.765625 0.046875 0  0.78125 0.046875 0  0.796875 0.046875 0  0.8125 0.046875 0  0.828125 0.046875 0  0.84375 0.046875 0  0.859375 0.046875 0  0.875 0.046875 0  0.890625 0.046875 0  0.90625 0.046875 0  0.921875 0.046875 0  0.9375 0.046875 0  0.953125 0.046875 0  0.96875 0.046875 0  0.984375 0.046875 0  1 0.046875 0  0 0.0625 0  0.015625 0.0625 0  0.03125 0.0625 0  0.046875 0.0625 0  0.0625 0.0625 0  0.078125 0.0625 0  0.09375 0.0625 0  0.109375 0.0625 0  0.125 0.0625 0  0.140625 0.0625 0  0.15625 0.0625 0  0.171875 0.0625 0  0.1875 0.0625 0  0.203125 0.0625 0  0.21875 0.0625 0  0.234375 0.0625 0  0.25 0.0625 0  0.265625 0.0625 0  0.28125 0.0625 0  0.296875 0.0625 0  0.3125 0.0625 0  0.328125 0.0625 0  0.34375 0.0625 0  0.359375 0.0625 0  0.375 0.0625 0  0.390625 0.0625 0  0.40625 0.0625 0  0.421875 0.0625 0  0.4375 0.0625 0  0.453125 0.0625 0  0.46875 0.0625 0  0.484375 0.0625 0  0.5 0.0625 0  0.515625 0.0625 0  0.53125 0.0625 0  0.546875 0.0625 0  0.5625 0.0625 0  0.578125 0.0625 0  0.59375 0.0625 0  0.609375 0.0625 0  0.625 0.0625 0  0.640625 0.0625 0  0.65625 0.0625 0  0.671875 0.0625 0  0.6875 0.0625 0  0.703125 0.0625 0  0.71875 0.0625 0  0.734375 0.0625 0  0.75 0.0625 0  0.765625 0.0625 0  0.78125 0.0625 0  0.796875 0.0625 0  0.8125 0.0625 0  0.828125 0.0625 0  0.84375 0.0625 0  0.859375 0.0625 0  0.875 0.0625 0  0.890625 0.0625 0  0.90625 0.0625 0  0.921875 0.0625 0  0.9375 0.0625 0  0.953125 0.0625 0  0.96875 0.0625 0  0.984375 0.0625 0  1 0.0625 0  0 0.078125 0  0.015625 0.078125 0  0.03125 0.078125 0  0.046875 0.078125 0  0.0625 0.078125 0  0.078125 0.078125 0  0.09375 0.078125 0  0.109375 0.078125 0  0.125 0.078125 0  0.140625 0.078125 0  0.15625 0.078125 0  0.171875 0.078125 0  0.1875 0.078125 0  0.203125 0.078125 0  0.21875 0.078125 0  0.234375 0.078125 0  0.25 0.078125 0  0.265625 0.078125 0  0.28125 0.078125 0  0.296875 0.078125 0  0.3125 0.078125 0  0.328125 0.078125 0  0.34375 0.078125 0  0.359375 0.078125 0  0.375 0.078125 0  0.390625 0.078125 0  0.40625 0.078125 0  0.421875 0.078125 0  0.4375 0.078125 0  0.453125 0.078125 0  0.46875 0.078125 0  0.484375 0.078125 0  0.5 0.078125 0  0.515625 0.078125 0  0.53125 0.078125 0  0.546875 0.078125 0  0.5625 0.078125 0  0.578125 0.078125 0  0.59375 0.078125 0  0.609375 0.078125 0  0.625 0.078125 0  0.640625 0.078125 0  0.65625 0.078125 0  0.671875 0.078125 0  0.6875 0.078125 0  0.703125 0.078125 0  0.71875 0.078125 0  0.734375 0.078125 0  0.75 0.078125 0  0.765625 0.078125 0  0.78125 0.078125 0  0.796875 0.078125 0  0.8125 0.078125 0  0.828125 0.078125 0  0.84375 0.078125 0  0.859375 0.078125 0  0.875 0.078125 0  0.890625 0.078125 0  0.90625 0.078125 0  0.921875 0.078125 0  0.9375 0.078125 0  0.953125 0.078125 0  0.96875 0.078125 0  0.984375 0.078125 0  1 0.078125 0  0 0.09375 0  0.015625 0.09375 0  0.03125 0.09375 0  0.046875 0.09375 0  0.0625 0.09375 0  0.078125 0.09375 0  0.09375 0.09375 0  0.109375 0.09375 0  0.125 0.09375 0  0.140625 0.09375 0  0.15625 0.09375 0  0.171875 0.09375 0  0.1875 0.09375 0  0.203125 0.09375 0  0.21875 0.09375 0  0.234375 0.09375 0  0.25 0.09375 0  0.265625 0.09375 0  0.28125 0.09375 0  0.296875 0.09375 0  0.3125 0.09375 0  0.328125 0.09375 0  0.34375 0.09375 0  0.359375 0.09375 0  0.375 0.09375 0  0.390625 0.09375 0  0.40625 0.09375 0  0.421875 0.09375 0  0.4375 0.09375 0  0.453125 0.09375 0  0.46875 0.09375 0  0.484375 0.09375 0  0.5 0.09375 0  0.515625 0.09375 0  0.53125 0.09375 0  0.546875 0.09375 0  0.5625 0.09375 0  0.578125 0.09375 0  0.59375 0.09375 0  0.609375 0.09375 0  0.625 0.09375 0  0.640625 0.09375 0  0.65625 0.09375 0  0.671875 0.09375 0  0.6875 0.09375 0  0.703125 0.09375 0  0.71875 0.09375 0  0.734375 0.09375 0  0.75 0.09375 0  0.765625 0.09375 0  0.78125 0.09375 0  0.796875 0.09375 0  0.8125 0.09375 0  0.828125 0.09375 0  0.84375 0.09375 0  0.859375 0.09375 0  0.875 0.09375 0  0.890625 0.09375 0  0.90625 0.09375 0  0.921875 0.09375 0  0.9375 0.09375 0  0.953125 0.09375 0  0.96875 0.09375 0  0.984375 0.09375 0  1 0.09375 0  0 0.109375 0  0.015625 0.109375 0  0.03125 0.109375 0  0.046875 0.109375 0  0.0625 0.109375 0  0.078125 0.109375 0  0.09375 0.109375 0  0.109375 0.109375 0  0.125 0.109375 0  0.140625 0.109375 0  0.15625 0.109375 0  0.171875 0.109375 0  0.1875 0.109375 0  0.203125 0.109375 0  0.21875 0.109375 0  0.234375 0.109375 0  0.25 0.109375 0  0.265625 0.109375 0  0.28125 0.109375 0  0.296875 0.109375 0  0.3125 0.109375 0  0.328125 0.109375 0  0.34375 0.109375 0  0.359375 0.109375 0  0.375 0.109375 0  0.390625 0.109375 0  0.40625 0.109375 0  0.421875 0.109375 0  0.4375 0.109375 0  0.453125 0.109375 0  0.46875 0.109375 0  0.484375 0.109375 0  0.5 0.109375 0  0.515625 0.109375 0  0.53125 0.109375 0  0.546875 0.109375 0  0.5625 0.109375 0  0.578125 0.109375 0  0.59375 0.109375 0  0.609375 0.109375 0  0.625 0.109375 0  0.640625 0.109375 0  0.65625 0.109375 0  0.671875 0.109375 0  0.6875 0.109375 0  0.703125 0.109375 0  0.71875 0.109375 0  0.734375 0.109375 0  0.75 0.109375 0  0.765625 0.109375 0  0.78125 0.109375 0  0.796875 0.109375 0  0.8125 0.109375 0  0.828125 0.109375 0  0.84375 0.109375 0  0.859375 0.109375 0  0.875 0.109375 0  0.890625 0.109375 0  0.90625 0.109375 0  0.921875 0.109375 0  0.9375 0.109375 0  0.953125 0.109375 0  0.96875 0.109375 0  0.984375 0.109375 0  1 0.109375 0  0 0.125 0  0.015625 0.125 0  0.03125 0.125 0  0.046875 0.125 0  0.0625 0.125 0  0.078125 0.125 0  0.09375 0.125 0  0.109375 0.125 0  0.125 0.12
[...]
<CellData  Scalars="f_176332"> 
<DataArray  type="Float64"  Name="f_176332"  format="ascii">6.7689342399374230e-14   9.2108602930396118e-14   8.2034024495069654e-14   9.8896015415583100e-14   1.0684067814852366e-13   1.1607273210365601e-13   1.4187032923370593e-13   1.4351020032096198e-13   1.8678545384275642e-13   1.8094454811278573e-13   2.4115348999014482e-13   2.2801534051476532e-13   3.0445085855608652e-13   2.8426928435905814e-13   3.7606798137610695e-13   3.4916462648278652e-13   4.5531515202613716e-13   4.2207638746895911e-13   5.4142918005344919e-13   5.0230238508132738e-13   6.3358074209965042e-13   5.8906999749307904e-13   7.3088236934395755e-13   6.8154360403407341e-13   8.3239699461750390e-13   7.7883263255506405e-13   9.3714697704103966e-13   8.8000013599305985e-13   1.0441235173308059e-12   9.8407181562244031e-13   1.1522963731362906e-12   1.0900454040130776e-12   1.2606237808779201e-12   1.1969003173946747e-12   1.3680624885109595e-12   1.3036074844014740e-12   1.4735778026313122e-12   1.4091392565843780e-12   1.5761535531454186e-12   1.5124793052141462e-12   1.6748018795486001e-12   1.6126324090778296e-12   1.7685727445692648e-12   1.7086340389901746e-12   1.8565630835382937e-12   1.7995596467453053e-12   1.9379255014230066e-12   1.8845335690052677e-12   2.0118764336728708e-12   1.9627374604333708e-12   2.0777036924038486e-12   2.0334181747888753e-12   2.1347733251327509e-12   2.0958950181308324e-12   2.1825357201193121e-12   2.1495663043004619e-12   2.2205308993883041e-12   2.1939151494660218e-12   2.2483929486061005e-12   2.2285144499885620e-12   2.2658535410052410e-12   2.2530309956884971e-12   2.2727445215490526e-12   2.2672286788171302e-12   2.2689995263187737e-12   2.2709707679290352e-12   2.2546546216785323e-12   2.2642212246431303e-12   2.2298479568904980e-12   2.2470450507588463e-12   2.1948184337030161e-12   2.2196076622051674e-12   2.1499034055707204e-12   2.1821732960377411e-12   2.0955354287615525e-12   2.1351024656614567e-12   2.0322380966129252e-12   2.0788484889055415e-12   1.9606209970282082e-12   2.0139531223178104e-12   1.8813738418156883e-12   1.9410413437560513e-12   1.7952598243979776e-12   1.8608153335025397e-12   1.7031082698298595e-12   1.7740477119055629e-12   1.6058066479450423e-12   1.6815740985889416e-12   1.5042920265470487e-12   1.5842850650131349e-12   1.3995420469218512e-12   1.4831175577661363e-12   1.2925655086229645e-12   1.3790458752510090e-12   1.1843926541882877e-12   1.2730722846790438e-12   1.0760652473292886e-12   1.1662173696824306e-12   9.6862654018725082e-13   1.0595102015242024e-12   8.6311122623467162e-13   9.5397842860875176e-13   7.6053547561687511e-13   8.5063837965017966e-13   6.6188714886382269e-13   7.5048527590477844e-13   5.6811628323519639e-13   6.5448364666543809e-13   4.8012594327233750e-13   5.6355804038517604e-13   3.9876352361592027e-13   4.7858412090812313e-13   3.2481258757881716e-13   4.0038023465639437e-13   2.5898531922853021e-13   3.2969953023492780e-13   2.0191565868266541e-13   2.6722270691124749e-13   1.5415317614316287e-13   2.1355146282369287e-13   1.1615771227389002e-13   1.6920270468264276e-13   8.8294651165055094e-14   1.3460357376479061e-13   7.0832453883719668e-14   1.1008677333867640e-13   6.3907614053705401e-14   9.5895095046301421e-14   1.1038897321069823e-13   1.4189667218161620e-13   1.2419652834737866e-13   1.4831553886344830e-13   1.4806205866028834e-13   1.6466407958092826e-13   1.8174397393801787e-13   1.9081460442353571e-13   2.2491779574715742e-13   2.2651455249126208e-13   2.7716771009667425e-13   2.7142003435916476e-13   3.3799050238020761e-13   3.2509860369381506e-13   4.0680040691300917e-13   3.8703332071781382e-13   4.8293474350497022e-13   4.5662772712033780e-13   5.6566029599658680e-13   5.3321159358512410e-13   6.5418037203141363e-13   6.1604737664890315e-13   7.4764247506789954e-13   7.0433732270961996e-13   8.4514651419325173e-13   7.9723115129819513e-13   9.4575347242249357e-13   8.9383424393868782e-13   1.0484944499314123e-12   9.9321625990163177e-13   1.1523799950806240e-12   1.0944200959099214e-12   1.2564096333981544e-12   1.1964711035841612e-12   1.3595815026837170e-12   1.2983864758442409e-12   1.4609020015112874e-12   1.3991847118651809e-12   1.5593953581415102e-12   1.4978950694796786e-12   1.6541130277504935e-12   1.5935669139350076e-12   1.7441428274352966e-12   1.6852788730297073e-12   1.8286177210330819e-12   1.7721477104433955e-12   1.9067241691594362e-12   1.8533368317597321e-12   1.9777099640437238e-12   1.9280643413405384e-12   2.0408914736701644e-12   1.9956105724170075e-12   2.0956602255780976e-12   2.0553250178327682e-12   2.1414887667576162e-12   2.1066325948423214e-12   2.1779357432977819e-12   2.1490391834311283e-12   2.2046501508917108e-12   2.1821363849545986e-12   2.2213747151964837e-12   2.2056054552752023e-12   2.2279483695015106e-12   2.2192203744226192e-12   2.2243078059206407e-12   2.2228500232733667e-12   2.2104880850667306e-12   2.2164594463272180e-12   2.1866222984011002e-12   2.2001101883414488e-12   2.1529402864813631e-12   2.1739597016125894e-12   2.1097664254851719e-12   2.1382598296196459e-12   2.0575165032894028e-12   2.0933543816527300e-12   1.9966937151979673e-12   2.0396758217307755e-12   1.9278838178847271e-12   1.9777411037382330e-12   1.8517494882698634e-12   1.9081466928622991e-12   1.7690239415514033e-12   1.8315628213371363e-12   1.6805038699559946e-12   1.7487270337195930e-12   1.5870417701374704e-12   1.6604370839355591e-12   1.4895377331941784e-12   1.5675432524770562e-12   1.3889307762816229e-12   1.4709401577359133e-12   1.2861897993685670e-12   1.3715581403372301e-12   1.1823042541930910e-12   1.2703543034626693e-12   1.0782746153103181e-12   1.1683032954143866e-12   9.7510274494477548e-13   1.0663879232369819e-12   8.7378224452169481e-13   9.6558968774325911e-13   7.7528888568353893e-13   8.6687933115882803e-13   6.8057121304376593e-13   7.7120748835199367e-13   5.9054140904509209e-13   6.7949553177108040e-13   5.0606650890636027e-13   5.9262669818775894e-13   4.2796005004956369e-13   5.1143758280143985e-13   3.5697423611773648e-13   4.3671008256581465e-13   2.9379269037481259e-13   3.6916386626652529e-13   2.3902386781493683e-13   3.0944944316187422e-13   1.9319519337786766e-13   2.5814189416562886e-13   1.5674802509894089e-13   2.1573531586597779e-13   1.3003355641305079e-13   1.8263804637358509e-13   1.1331175700725174e-13   1.5916811907653274e-13   1.0670838889406451e-13   1.4556289469455715e-13   1.6338170325975896e-13   2.0160343687326971e-13   1.7653530889239016e-13   2.0759362102249046e-13   1.9923814080266670e-13   2.2295144299580831e-13   2.3125531926360509e-13   2.4755714731257024e-13   2.7227930250092598e-13   2.8117363287165021e-13   3.2191504409867452e-13   3.2347709537989688e-13   3.7968452560438675e-13   3.7406012015310687e-13   4.4503138926041510e-13   4.3243556498628297e-13   5.1732630407095248e-13   4.9804124586300953e-13   5.9587302750337669e-13   5.7024534730704875e-13   6.7991511007710095e-13   6.4835250637487730e-13   7.6864317979243613e-13   7.3161050958908028e-13   8.6120273645508830e-13   8.1921753748651682e-13   9.5670238077039914e-13   9.1032988681100960e-13   1.0542223989006775e-12   1.0040700959721468e-12   1.1528236197567287e-12   1.0995353955643116e-12   1.2515564596919667e-12   1.1958064025723189e-12   1.3494700675178989e-12   1.2919559745565823e-12   1.4456214816860172e-12   1.3870581385576646e-12   1.5390847115448835e-12   1.4801970087218958e-12   1.6289596551187186e-12   1.5704756067923173e-12   1.7143807675867652e-12   1.6570245004969135e-12   1.7945253969482276e-12   1.7390101766610873e-12   1.8686217066327154e-12   1.8156430683874246e-12   1.9359561086744697e-12   1.8861851590323471e-12   1.9958801359773542e-12   1.9499570896925992e-12   2.0478166874053914e-12   2.0063447018004042e-12   2.0912655855837688e-12   2.0548049518310617e-12   2.1258083938602976e-12   2.0948711410839476e-12   2.1511124461172610e-12   2.1261574102429020e-12   2.1669340504887113e-12   2.1483624554477963e-12   2.1731208362818493e-12   2.1612724299656031e-12   2.1696132213524359e-12   2.1647630036941941e-12   2.1564449859493054e-12   2.1588005604976203e-12   2.1337429473680505e-12   2.1434425219687367e-12   2.1017257386537608e-12   2.1188367944175762e-12   2.0607017030085699e-12   2.0852203444625332e-12   2.0110659243219117e-12   2.0429169168908304e-12   1.9532964222645098e-12   1.9923339168472890e-12   1.8879495487108229e-12   1.9339584862791431e-12   1.8156546297599679e-12   1.8683528125048870e-12   1.7371079049937060e-12   1.7961487140291686e-12   1.6530658222904667e-12   1.7180415558121075e-12   1.5643377528362162e-12   1.6347835524878667e-12   1.4717781964140175e-12   1.5471765241645479e-12   1.3762785521266870e-12   1.4560641744308817e-12   1.2787585337145823e-12   1.3623239650445680e-12   1.1801573122128804e-12   1.2668586655031799e-12   1.0814244712086766e-12   1.1705876588716807e-12   9.8351086181618559e-13   1.0744380876340371e-12   8.8735944544368790e-13   9.7933592481405280e-13   7.9389621250511870e-13   8.8619705636566212e-13   7.0402126455840350e-13   7.9591846070399462e-13   6.1860014571562962e-13   7.0936957033909594e-13   5.3845550676800766e-13   6.2738389878523845e-13   4.6435918233501730e-13   5.5075101332465164e-13   3.9702475745654600e-13   4.8020893082222223e-13   3.3710069608040578e-13   4.1643700940754351e-13   2.8516410078315350e-13   3.6004940361976379e-13   2.4171517315886104e-13   3.1158914480140305e-13   2.0717245096018899e-13   2.7152290425353992e-13   1.8186878594611079e-13   2.4023655074768799e-13   1.6604937014902969e-13   2.1803078732118165e-13   1.5983057302988334e-13   2.0513476832699239e-13   2.2614723557355363e-13   2.7065267819174257e-13   2.3852904575207970e-13   2.7614504399812137e-13   2.5985923456046776e-13   2.9035336381175991e-13   2.8991263697061747e-13   3.1316755390941937e-13   3.2840060218738688e-13   3.4436771380175334e-13   3.7495241005531305e-13   3.8365327956207400e-13   4.2911975015074327e-13   4.3064589270877034e-13   4.9038096571161206e-13   4.8489298015400596e-13   5.5814607760328941e-13   5.4587211050187494e-13   6.3176246931610126e-13   6.1299602171792064e-13   7.1052117337986727e-13   6.8561827487684215e-13   7.9366369942991583e-13   7.6303947895514082e-13   8.8038933884512368e-13   8.4451402617072028e-13   9.6986287591539199e-13   9.2925727258760960e-13   1.0612226313249118e-12   1.0164530947351783e-12   1.1535887605565216e-12   1.1052617493704141e-12   1.2460717272129648e-12   1.1948279607174012e-12   1.3377808697277490e-12   1.2842891572654671e-12   1.4278329789073967e-12   1.3727837788166781e-12   1.5153608037048975e-12   1.4594595738116489e-12   1.5995214033145951e-12   1.5434818069665703e-12   1.6795042651562002e-12   1.6240412982483343e-12   1.7545391105510914e-12   1.7003622157120335e-12   1.8239033129206785e-12   1.7717095472034692e-12   1.8869288570824012e-12   1.8373961789126544e-12   1.9430087725882987e-12   1.8967895126711874e-12   1.9916029791970327e-12   1.9493175581992685e-12   2.0322434881290666e-12   1.9944744417068344e-12   2.0645389090734146e-12   2.0318252777213199e-12   2.0881782194615620e-12   2.0610103572749765e-12   2.1029337598109541e-12   2.0817486120994803e-12   2.1086634261980822e-12   2.0938403214672268e-12   2.1053120387993986e-12   2.0971690356114629e-12   2.0929118732889948e-12   2.0917026972034623e-12   2.0715823500478122e-12   2.0774939500615249e-12   2.0415288840277141e-12   2.0546796322088654e-12   2.0030409065330810e-12   2.0234794579954004e-12   1.9564890778112595e-12   1.9841939021666151e-12   1.9023217174124129e-12   1.9372013061033184e-12   1.8410604866195657e-12   1.8829542342026143e-12   1.7732953645534139e-12   1.8219751154367419e-12   1.6996789663748281e-12   1.7548512120521585e-12   1.6209202582254009e-12   1.6822289639559992e-12   1.5377777294877826e-12   1.6048077631061409e-12   1.4510520881422294e-12   1.5233332180006394e-12   1.3615785494845331e-12   1.4385899730725949e-12   1.2702187925566172e-12   1.3513941521196410e-12   1.1778526616958203e-12   1.2625854985945077e-12   1.0853696931368557e-12   1.1730192884264334e-12   9.9366054828893524e-13   1.0835580932305348e-12   9.0360843615846615e-13   9.9506347329734745e-13   8.1608060752459984e-13   9.0838768028868497e-13   7.3192000281921346e-13   8.2436544957304540e-13   6.5193713412266368e-13   7.4380596125086471e-13   5.7690227951061487e-13   6.6748504722355554e-13   5.0753806512072706e-13   5.9613771929038241e-13   4.4451250672306772e-13   5.3045109011845502e-13   3.8843257879957545e-13   4.7105775502526775e-13   3.3983837459004508e-13   4.1852969829438555e-13   2.9919791383297862e-13   3.7337278398693294e-13   2.6690264822045851e-13   3.3602188802318224e-13   2.4326364995494234e-13   3.0683678309866152e-13   2.2851019385606856e-13   2.8609781055191222e-13   2.2274961958693310e-13   2.7402403293019530e-13   2.9808240980735924e-13   3.4837895289922794e-13   3.0958307309255785e-13   3.5330958279202814e-13   3.2934519229110367e-13   3.6622142500728710e-13   3.5715467292411525e-13   3.8701494966913963e-13   3.9274460534479469e-13   4.1548940235544060e-13   4.3577213240002262e-13   4.5137044636021333e-13   4.8582287806427885e-13   4.9431252491147974e-13   5.4241483219266406e-13   5.4390207774688922e-13   6.0500298636271517e-13   5.9966152688254298e-13   6.7298458321884934e-13   6.6105387670399742e-13   7.4570492259761957e-13   7.2748788495852317e-13   8.2246366736900915e-13   7.9832375605080570e-13   9.0252158836376213e-13   8.7287930221733368e-13   9.8510768364522900e-13   9.5043651317538625e-13   1.0694266036777303e-12   1.0302484708969538e-12   1.1546663109745502e-12   1.1115465428297473e-12   1.2400059004169870e-12   1.1935477842683064e-12   1.3246235050198805e-12   1.2754624785378720e-12   1.4077042109324961e-12   1.3565017424356281e-12   1.4884479055061722e-12   1.4358851235960054e-12   1.5660769827914967e-12   1.5128481167019930e-12   1.6398438323244367e-12   1.5866495260750996e-12   1.7090380390080983e-12   1.6565786038160562e-12   1.7729932247957417e-12   1.7219618946907404e-12   1.8310934662790518e-12   1.7821697218709768e-12   1.8827792263727185e-12   1.8366222510753005e-12   1.9275527429390504e-12   1.8847950746841416e-12   1.9649828225406753e-12   1.9262242620748270e-12   1.9947089930371994e-12   1.9605108275355785e-12   2.0164449751558091e-12   1.9873245726952796e-12   2.0299814394984872e-12   2.0064072665367094e-12   2.0351880225090421e-12   2.0175751322931783e-12   2.0320145819376932e-12   2.0207206173143497e-12   2.0204916797503696e-12   2.0158134288680787e-12   2.0007302877779665e-12   2.0029008258670940e-12   1.9729207190265355e-12   1.9821071637418282e-12   1.9373307948280890e-12   1.9536326968333115e-12   1.8943032656121043e-12   1.9177516498270386e-12   1.8442525099806516e-12   1.8748095768333957e-12   1.7876605440644936e-12   1.8252200334911873e-12   1.7250723794184872e-12   1.7694605942215183e-12   1.6570907742680958e-12   1.7080682529168030e-12   1.5843704286115706e-12   1.6416342513909058e-12   1.5076116791105418e-12   1.5707983854074302e-12   1.4275537544537705e-12   1.4962428430916443e-12   1.3449676561897935e-12   1.4186856350868221e-12   1.2606487335385462e-12   1.3388736797209052e-12   1.1754090237607316e-12   1.2575756097751052e-12   1.0900694317786996e-12   1.1755743701239602e-12   1.0054518244109587e-12   1.0936596775590771e-12   9.2237111534207250e-13   1.0126204153650782e-12   8.4162741706241922e-13   9.3323703593494386e-13   7.6399833537536966e-13   8.5627404454933895e-13   6.9023148072095936e-13   7.8247263670914789e-13   6.2103726849296886e-13   7.1254355988424392e-13   5.5708207786065054e-13   6.4716026838787815e-13   4.9898183517829790e-13   5.8695243727633007e-13   4.4729608393212999e-13   5.3249989782281614e-13   4.0252259783193752e-13   4.8432705345615369e-13   3.6509258674995544e-13   4.4289783155389948e-13   3.3536654941153157e-13   4.0861122087680127e-13   3.1363081435316832e-13   3.8179750615780967e-13   3.0009669578528170e-13   3.6271402324885155e-13   2.9486121910841635e-13   3.5156837149479808e-13   3.7849475239673200e-13   4.3403366850129724e-13   3.8901315120914563e-13   4.3834413112215914e-13   4.0702674019022836e-13   4.4982504276381803e-13   4.3233373776338177e-13   4.6838808360804766e-13   4.6469151386622729e-13   4.9385363594014087e-13   5.0378832288932675e-13   5.2597630137653661e-13   5.4924763391543933e-13   5.6444672173449623e-13   6.0063164984060121e-13   6.0889440553234121e-13   6.5744551696883925e-13   6.5889129548180356e-13   7.1914208832077905e-13   7.1395589251124520e-13   7.8512719285940295e-13   7.7355789346871304e-13   8.5476535805938181e-13   8.3712329812394443e-13   9.2738593017199406e-13   9.0403993685660415e-13   1.0022895331646189e-12   9.7366336599462648e-13   1.0787548041706291e-12   1.0453230740400777e-12   1.1560453406499547e-12   1.1183289390113039e-12   1.2334167923333960e-12   1.1919778746772335e-12   1.3101240297417527e-12   1.2655606016380703e-12   1.3854283201628499e-12   1.3383684781113601e-12   1.4586044420559539e-12   1.4097003245089448e-12   1.5289476693216708e-12   1.4788691762116638e-12   1.5957805581976462e-12   1.5452088994033166e-12   1.6584594714018618e-12   1.6080806063114383e-12   1.7163807767222192e-12   1.6668788080480794e-12   1.7689866603086564e-12   1.7210372458084078e-12   1.8157704987361467e-12   1.7700343442426539e-12   1.8562817380506378e-12   1.8133982345194507e-12   1.8901302328691770e-12   1.8507112986737708e-12   1.9169900036704349e-12   1.8816141915145087e-12   1.9366023761710278e-12   1.9058093012987821e-12   1.9487784724992872e-12   1.9230636158894834e-12   1.9534010301762535e-12   1.9332109668213213e-12   1.9504255314407813e-12   1.9361536295575063e-12   1.9398806319671028e-12   1.9318632646579329e-12   1.9218678848873094e-12   1.9203811906871623e-12   1.8965607627982291e-12   1.9018179863001859e-12   1.8642029871082417e-12   1.8763524253053136e-12   1.8251061808793081e-12   1.8442297549863630e-12   1.7796468677113449e-12   1.8057593342229366e-12   1.7282628456366501e-12   1.7613116542006312e-12   1.6714489708647267e-12   1.7113147703871995e-12   1.6097523920466982e-12   1.6562501801095030e-12   1.5437672809564567e-12   1.5966481854708305e-12   1.4741291102630411e-12   1.5330827862771124e-12   1.4015085335994326e-12   1.4661661520727282e-12   1.3266049267890291e-12   1.3965427266289605e-12   1.2501396524819752e-12   1.3248830215960609e-12   1.1728491130379609e-12   1.2518771590999711e-12   1.0954776585653118e-12   1.1782282255019372e-12   1.0187704184331225e-12   1.1046455002662499e-12   9.4346612527637910e-13   1.0318376252062002e-12   8.7029000064219742e-13   9.6050577984399723e-13   7.9994677077143029e-13   8.9133692863220122e-13   7.3311387984834489e-13   8.2499720503028081e-13   6.7043496608233883e-13   7.6212549616883517e-13   6.1251366353443982e-13   7.0332728986473715e-13   5.5990778930008468e-13   6.4916884334188975e-13   5.1312397171624878e-13   6.0017172998799072e-13   4.7261277050038670e-13   5.5680781712235400e-13   4.3876433562561834e-13   5.1949472409088725e-13   4.1190466454843817e-13   4.8859180342860171e-13   3.9229253257568758e-13   4.6439676396664936e-13   3.8011919949363848e-13   4.4714156103321429e-13   3.7547058394258926e-13   4.3702100362861321e-13   4.6660985174569015e-13   5.2679193415818369e-13   4.7605434357787490e-13   5.3042975210857441e-13   4.9215573477038805e-13   5.4035908015633698e-13   5.1472581340051734e-13   5.5650329585978099e-13   5.4354846261701633e-13   5.7870572258179930e-13   5.7834597659743627e-13   6.0675234122211813e-13   6.1878322625894452e-13   6.4037304337409747e-13   6.6447077589351686e-13   6.7924404459401014e-13   7.1496863001017112e-13   7.2299099598782860e-13   7.6979046783991297e-13   7.7119258970622776e-13   8.2840832598271414e-13   8.2338461721542811e-13   8.9025768286911049e-13   8.7906444019777084e-13   9.5474289552331840e-13   9.3769583124559909e-13   1.0212429360804313e-12   9.9871413793444679e-13   1.089117