<?xml version="1.0"?>
<VTKFile type="UnstructuredGrid"  version="0.1"  >
<UnstructuredGrid>
<Piece  NumberOfPoints="25" NumberOfCells="32">
<Points>
<DataArray  type="Float64"  NumberOfComponents="3"  format="ascii">0 0 0  0.25 0 0  0.5 0 0  0.75 0 0  1 0 0  0 0.25 0  0.25 0.25 0  0.5 0.25 0  0.75 0.25 0  1 0.25 0  0 0.5 0  0.25 0.5 0  0.5 0.5 0  0.75 0.5 0  1 0.5 0  0 0.75 0  0.25 0.75 0  0.5 0.75 0  0.75 0.75 0  1 0.75 0  0 1 0  0.25 1 0  0.5 1 0  0.75 1 0  1 1 0  </DataArray>
</Points>
<Cells>
<DataArray  type="UInt32"  Name="connectivity"  format="ascii">0 1 6  0 5 6  1 2 7  1 6 7  2 3 8  2 7 8  3 4 9  3 8 9  5 6 11  5 10 11  6 7 12  6 11 12  7 8 13  7 12 13  8 9 14  8 13 14  10 11 16  10 15 16  11 12 17  11 16 17  12 13 18  12 17 18  13 14 19  13 18 19  15 16 21  15 20 21  16 17 22  16 21 22  17 18 23  17 22 23  18 19 24  18 23 24  </DataArray>
<DataArray  type="UInt32"  Name="offsets"  format="ascii">3 6 9 12 15 18 21 24 27 30 33 36 39 42 45 48 51 54 57 60 63 66 69 72 75 78 81 84 87 90 93 96 </DataArray>
<DataArray  type="UInt8"  Name="types"  format="ascii">5 5 5 5 5 5 5 5 5 5 5 5 5 5 5 5 5 5 5 5 5 5 5 5 5 5 5 5 5 5 5 5 </DataArray>
</Cells>
<CellData  Scalars="f_44029"> 
<DataArray  type="Float64"  Name="f_44029"  format="ascii">1.7985859728376801e-08   7.1036406600659302e-09   6.0092171223144518e-09   3.3192488308340818e-09   4.1881367876954417e-09   4.3521486701394856e-09   1.6153035630124509e-08   9.4189703627908637e-09   1.4835907657875394e-08   1.3324045006078476e-11   1.6557028095225922e-08   7.7461433927640206e-09   8.4600461637942045e-09   1.5084097437141610e-08   8.0022563422393891e-09   7.3597417507765933e-09   7.3662180745637441e-09   7.9922221990710077e-09   1.5097169963883257e-08   8.4644456254329653e-09   7.7505863310957854e-09   1.6567603759186097e-08   1.4049901926816427e-11   1.4828824413938447e-08   9.4131626615746682e-09   1.6153035630104554e-08   4.3605206121457588e-09   4.1923632296488692e-09   3.3231907298767949e-09   6.0203917834156684e-09   7.0917321573554577e-09   1.7991916169714181e-08   </DataArray> 
</CellData> 
</Piece>
</UnstructuredGrid>
</VTKFile>