<?xml version="1.0"?>
<VTKFile type="UnstructuredGrid"  version="0.1"  >
<UnstructuredGrid>
<Piece  NumberOfPoints="81" NumberOfCells="128">
<Points>
<DataArray  type="Float64"  NumberOfComponents="3"  format="ascii">0 0 0  0.125 0 0  0.25 0 0  0.375 0 0  0.5 0 0  0.625 0 0  0.75 0 0  0.875 0 0  1 0 0  0 0.125 0  0.125 0.125 0  0.25 0.125 0  0.375 0.125 0  0.5 0.125 0  0.625 0.125 0  0.75 0.125 0  0.875 0.125 0  1 0.125 0  0 0.25 0  0.125 0.25 0  0.25 0.25 0  0.375 0.25 0  0.5 0.25 0  0.625 0.25 0  0.75 0.25 0  0.875 0.25 0  1 0.25 0  0 0.375 0  0.125 0.375 0  0.25 0.375 0  0.375 0.375 0  0.5 0.375 0  0.625 0.375 0  0.75 0.375 0  0.875 0.375 0  1 0.375 0  0 0.5 0  0.125 0.5 0  0.25 0.5 0  0.375 0.5 0  0.5 0.5 0  0.625 0.5 0  0.75 0.5 0  0.875 0.5 0  1 0.5 0  0 0.625 0  0.125 0.625 0  0.25 0.625 0  0.375 0.625 0  0.5 0.625 0  0.625 0.625 0  0.75 0.625 0  0.875 0.625 0  1 0.625 0  0 0.75 0  0.125 0.75 0  0.25 0.75 0  0.375 0.75 0  0.5 0.75 0  0.625 0.75 0  0.75 0.75 0  0.875 0.75 0  1 0.75 0  0 0.875 0  0.125 0.875 0  0.25 0.875 0  0.375 0.875 0  0.5 0.875 0  0.625 0.875 0  0.75 0.875 0  0.875 0.875 0  1 0.875 0  0 1 0  0.125 1 0  0.25 1 0  0.375 1 0  0.5 1 0  0.625 1 0  0.75 1 0  0.875 1 0  1 1 0  </DataArray>
</Points>
<Cells>
<DataArray  type="UInt32"  Name="connectivity"  format="ascii">0 1 10  0 9 10  1 2 11  1 10 11  2 3 12  2 11 12  3 4 13  3 12 13  4 5 14  4 13 14  5 6 15  5 14 15  6 7 16  6 15 16  7 8 17  7 16 17  9 10 19  9 18 19  10 11 20  10 19 20  11 12 21  11 20 21  12 13 22  12 21 22  13 14 23  13 22 23  14 15 24  14 23 24  15 16 25  15 24 25  16 17 26  16 25 26  18 19 28  18 27 28  19 20 29  19 28 29  20 21 30  20 29 30  21 22 31  21 30 31  22 23 32  22 31 32  23 24 33  23 32 33  24 25 34  24 33 34  25 26 35  25 34 35  27 28 37  27 36 37  28 29 38  28 37 38  29 30 39  29 38 39  30 31 40  30 39 40  31 32 41  31 40 41  32 33 42  32 41 42  33 34 43  33 42 43  34 35 44  34 43 44  36 37 46  36 45 46  37 38 47  37 46 47  38 39 48  38 47 48  39 40 49  39 48 49  40 41 50  40 49 50  41 42 51  41 50 51  42 43 52  42 51 52  43 44 53  43 52 53  45 46 55  45 54 55  46 47 56  46 55 56  47 48 57  47 56 57  48 49 58  48 57 58  49 50 59  49 58 59  50 51 60  50 59 60  51 52 61  51 60 61  52 53 62  52 61 62  54 55 64  54 63 64  55 56 65  55 64 65  56 57 66  56 65 66  57 58 67  57 66 67  58 59 68  58 67 68  59 60 69  59 68 69  60 61 70  60 69 70  61 62 71  61 70 71  63 64 73  63 72 73  64 65 74  64 73 74  65 66 75  65 74 75  66 67 76  66 75 76  67 68 77  67 76 77  68 69 78  68 77 78  69 70 79  69 78 79  70 71 80  70 79 80  </DataArray>
<DataArray  type="UInt32"  Name="offsets"  format="ascii">3 6 9 12 15 18 21 24 27 30 33 36 39 42 45 48 51 54 57 60 63 66 69 72 75 78 81 84 87 90 93 96 99 102 105 108 111 114 117 120 123 126 129 132 135 138 141 144 147 150 153 156 159 162 165 168 171 174 177 180 183 186 189 192 195 198 201 204 207 210 213 216 219 222 225 228 231 234 237 240 243 246 249 252 255 258 261 264 267 270 273 276 279 282 285 288 291 294 297 300 303 306 309 312 315 318 321 324 327 330 333 336 339 342 345 348 351 354 357 360 363 366 369 372 375 378 381 384 </DataArray>
<DataArray  type="UInt8"  Name="types"  format="ascii">5 5 5 5 5 5 5 5 5 5 5 5 5 5 5 5 5 5 5 5 5 5 5 5 5 5 5 5 5 5 5 5 5 5 5 5 5 5 5 5 5 5 5 5 5 5 5 5 5 5 5 5 5 5 5 5 5 5 5 5 5 5 5 5 5 5 5 5 5 5 5 5 5 5 5 5 5 5 5 5 5 5 5 5 5 5 5 5 5 5 5 5 5 5 5 5 5 5 5 5 5 5 5 5 5 5 5 5 5 5 5 5 5 5 5 5 5 5 5 5 5 5 5 5 5 5 5 5 </DataArray>
</Cells>
<CellData  Scalars="f_44163"> 
<DataArray  type="Float64"  Name="f_44163"  format="ascii">5.3012677903701489e-42   5.3012677903701489e-42   2.2201550069444910e-41   2.2201550069444910e-41   1.2754930021943237e-41   1.2754930021943237e-41   1.1543211669858615e-40   1.1543211669858615e-40   9.0878876406345466e-42   9.0878876406345466e-42   3.3162818057052381e-41   3.3162818057052381e-41   3.1887325054858093e-42   3.1887325054858093e-42   7.8442819634950793e-41   7.8442819634950793e-41   1.0283662330191735e-40   1.0283662330191735e-40   6.1223664105327461e-40   6.1223664105327461e-40   1.0203944017554590e-40   1.0203944017554590e-40   3.8782959097971142e-41   3.8782959097971142e-41   5.3379382141832384e-40   5.3379382141832384e-40   6.3774650109716178e-41   6.3774650109716178e-41   1.3265127222820953e-40   1.3265127222820953e-40   3.3162818057052376e-41   3.3162818057052376e-41   5.1019720087772949e-41   5.1019720087772949e-41   4.5917748078995581e-40   4.5917748078995581e-40   0.0000000000000000e+00   0.0000000000000000e+00   2.1225220932450250e-40   2.1225000739639895e-40   4.5969564982209730e-40   4.5969785175020085e-40   4.0050480268901736e-40   4.0050480268901736e-40   9.4386482162379806e-41   9.4386482162379806e-41   3.6351550562538186e-41   3.6351550562538186e-41   1.1084831372195029e-40   1.1084831372195029e-40   5.4846199094355855e-40   5.4846199094355855e-40   1.5749349140375982e-40   1.5749349140375982e-40   2.1943880055711986e-40   2.1943825007509397e-40   1.4661194172878956e-40   1.4661249221081544e-40   2.4062972669522277e-40   2.4062972669522277e-40   6.8956340431130525e-42   6.8956340431130525e-42   5.1019720087772854e-42   5.1019720087772854e-42   5.1816903214144392e-41   5.1816903214144392e-41   8.8519214352286059e-40   8.8519214352286059e-40   2.0395930288213598e-40   2.0395930288213598e-40   1.5849217223982789e-40   1.5848997031172436e-40   2.7223169288780405e-40   2.7223389481590760e-40   4.5930702304799125e-40   4.5930702304799125e-40   1.0574634171317314e-40   1.0574634171317314e-40   3.3800564558149571e-41   3.3800564558149571e-41   7.4616340628367900e-41   7.4616340628367900e-41   1.8367099231598246e-40   1.8367099231598246e-40   4.1325973271096053e-40   4.1325973271096053e-40   2.7156263392653875e-40   2.7156043199843519e-40   1.6788676641382777e-40   1.6788896834193130e-40   1.3265127222820953e-40   1.3265127222820953e-40   1.2754930021943237e-41   1.2754930021943237e-41   1.5943662527429047e-41   1.5943662527429047e-41   7.6529580131659418e-41   7.6529580131659418e-41   1.3265127222820953e-40   1.3265127222820953e-40   2.6785353046080797e-40   2.6785353046080797e-40   9.0771270446336042e-40   9.0771256684285395e-40   1.0542746846262457e-40   1.0542760608313104e-40   1.0203944017554590e-40   1.0203944017554590e-40   5.1019720087772949e-41   5.1019720087772949e-41   8.4820284645922372e-41   8.4820284645922372e-41   6.4890706486636170e-41   6.4890706486636170e-41   4.0337466194395450e-41   4.0337466194395450e-41   1.3982592036555259e-40   1.3982592036555259e-40   1.2954728118384716e-41   1.2954225803536098e-41   2.6028029076027907e-41   2.6028531390876525e-41   7.9718312637145232e-43   7.9718312637145232e-43   1.2754930021943237e-41   1.2754930021943237e-41   1.1213377151322431e-40   1.1213377151322431e-40   </DataArray> 
</CellData> 
</Piece>
</UnstructuredGrid>
</VTKFile>