<?xml version="1.0"?>
<VTKFile type="UnstructuredGrid"  version="0.1"  >
<UnstructuredGrid>
<Piece  NumberOfPoints="81" NumberOfCells="128">
<Points>
<DataArray  type="Float64"  NumberOfComponents="3"  format="ascii">0 0 0  0.125 0 0  0.25 0 0  0.375 0 0  0.5 0 0  0.625 0 0  0.75 0 0  0.875 0 0  1 0 0  0 0.125 0  0.125 0.125 0  0.25 0.125 0  0.375 0.125 0  0.5 0.125 0  0.625 0.125 0  0.75 0.125 0  0.875 0.125 0  1 0.125 0  0 0.25 0  0.125 0.25 0  0.25 0.25 0  0.375 0.25 0  0.5 0.25 0  0.625 0.25 0  0.75 0.25 0  0.875 0.25 0  1 0.25 0  0 0.375 0  0.125 0.375 0  0.25 0.375 0  0.375 0.375 0  0.5 0.375 0  0.625 0.375 0  0.75 0.375 0  0.875 0.375 0  1 0.375 0  0 0.5 0  0.125 0.5 0  0.25 0.5 0  0.375 0.5 0  0.5 0.5 0  0.625 0.5 0  0.75 0.5 0  0.875 0.5 0  1 0.5 0  0 0.625 0  0.125 0.625 0  0.25 0.625 0  0.375 0.625 0  0.5 0.625 0  0.625 0.625 0  0.75 0.625 0  0.875 0.625 0  1 0.625 0  0 0.75 0  0.125 0.75 0  0.25 0.75 0  0.375 0.75 0  0.5 0.75 0  0.625 0.75 0  0.75 0.75 0  0.875 0.75 0  1 0.75 0  0 0.875 0  0.125 0.875 0  0.25 0.875 0  0.375 0.875 0  0.5 0.875 0  0.625 0.875 0  0.75 0.875 0  0.875 0.875 0  1 0.875 0  0 1 0  0.125 1 0  0.25 1 0  0.375 1 0  0.5 1 0  0.625 1 0  0.75 1 0  0.875 1 0  1 1 0  </DataArray>
</Points>
<Cells>
<DataArray  type="UInt32"  Name="connectivity"  format="ascii">0 1 10  0 9 10  1 2 11  1 10 11  2 3 12  2 11 12  3 4 13  3 12 13  4 5 14  4 13 14  5 6 15  5 14 15  6 7 16  6 15 16  7 8 17  7 16 17  9 10 19  9 18 19  10 11 20  10 19 20  11 12 21  11 20 21  12 13 22  12 21 22  13 14 23  13 22 23  14 15 24  14 23 24  15 16 25  15 24 25  16 17 26  16 25 26  18 19 28  18 27 28  19 20 29  19 28 29  20 21 30  20 29 30  21 22 31  21 30 31  22 23 32  22 31 32  23 24 33  23 32 33  24 25 34  24 33 34  25 26 35  25 34 35  27 28 37  27 36 37  28 29 38  28 37 38  29 30 39  29 38 39  30 31 40  30 39 40  31 32 41  31 40 41  32 33 42  32 41 42  33 34 43  33 42 43  34 35 44  34 43 44  36 37 46  36 45 46  37 38 47  37 46 47  38 39 48  38 47 48  39 40 49  39 48 49  40 41 50  40 49 50  41 42 51  41 50 51  42 43 52  42 51 52  43 44 53  43 52 53  45 46 55  45 54 55  46 47 56  46 55 56  47 48 57  47 56 57  48 49 58  48 57 58  49 50 59  49 58 59  50 51 60  50 59 60  51 52 61  51 60 61  52 53 62  52 61 62  54 55 64  54 63 64  55 56 65  55 64 65  56 57 66  56 65 66  57 58 67  57 66 67  58 59 68  58 67 68  59 60 69  59 68 69  60 61 70  60 69 70  61 62 71  61 70 71  63 64 73  63 72 73  64 65 74  64 73 74  65 66 75  65 74 75  66 67 76  66 75 76  67 68 77  67 76 77  68 69 78  68 77 78  69 70 79  69 78 79  70 71 80  70 79 80  </DataArray>
<DataArray  type="UInt32"  Name="offsets"  format="ascii">3 6 9 12 15 18 21 24 27 30 33 36 39 42 45 48 51 54 57 60 63 66 69 72 75 78 81 84 87 90 93 96 99 102 105 108 111 114 117 120 123 126 129 132 135 138 141 144 147 150 153 156 159 162 165 168 171 174 177 180 183 186 189 192 195 198 201 204 207 210 213 216 219 222 225 228 231 234 237 240 243 246 249 252 255 258 261 264 267 270 273 276 279 282 285 288 291 294 297 300 303 306 309 312 315 318 321 324 327 330 333 336 339 342 345 348 351 354 357 360 363 366 369 372 375 378 381 384 </DataArray>
<DataArray  type="UInt8"  Name="types"  format="ascii">5 5 5 5 5 5 5 5 5 5 5 5 5 5 5 5 5 5 5 5 5 5 5 5 5 5 5 5 5 5 5 5 5 5 5 5 5 5 5 5 5 5 5 5 5 5 5 5 5 5 5 5 5 5 5 5 5 5 5 5 5 5 5 5 5 5 5 5 5 5 5 5 5 5 5 5 5 5 5 5 5 5 5 5 5 5 5 5 5 5 5 5 5 5 5 5 5 5 5 5 5 5 5 5 5 5 5 5 5 5 5 5 5 5 5 5 5 5 5 5 5 5 5 5 5 5 5 5 </DataArray>
</Cells>
<CellData  Scalars="f_88094"> 
<DataArray  type="Float64"  Name="f_88094"  format="ascii">2.2303506025699838e-03   2.2558942065301927e-03   4.1348524099665664e-03   5.8328088610725606e-03   5.3955641459183948e-03   9.1900520482719739e-03   5.2605588003473069e-03   1.0548125282411261e-02   3.8058119294712626e-03   9.1005356086735108e-03   1.8856144192092520e-03   5.6948464487104507e-03   6.2271146443966161e-04   2.3290830777125248e-03   5.5116047716414237e-04   9.6615028610194404e-04   1.0177229812065324e-02   8.5465131528477799e-03   1.2405324269784085e-02   1.2416235424909468e-02   1.2039859870798870e-02   1.2045927500001646e-02   9.2727736931474056e-03   9.2634613681190619e-03   5.7206004076433047e-03   5.6948123884106271e-03   3.4678324514504379e-03   3.4383254115966798e-03   3.8243226853827083e-03   3.8159551432901812e-03   4.9058186971825775e-03   6.5737721990102079e-03   1.9722663601284048e-02   1.5993222057952908e-02   1.8219764922487114e-02   1.8191269088311771e-02   1.2515161851790031e-02   1.2491220321315596e-02   5.9440614802828973e-03   5.9164658368102575e-03   2.3603103684185760e-03   2.3321784754533671e-03   3.8654645730307486e-03   3.8509921522603143e-03   9.5534860565241811e-03   9.5764570379040879e-03   1.2336024725069466e-02   1.6105385730015936e-02   2.5433505946663090e-02   2.0201126002972476e-02   1.9798935039663974e-02   1.9747497163216787e-02   1.0294473397937355e-02   1.0266361957728664e-02   2.5095496289517724e-03   2.4925559371961298e-03   1.0162075828862584e-03   1.0093210428428509e-03   6.6848025318806716e-03   6.6965019235212999e-03   1.6161027017336661e-02   1.6210106056932946e-02   1.8683839705352489e-02   2.3932104305383534e-02   2.3934613630513264e-02   1.8684664885596374e-02   1.6211990407876426e-02   1.6164130381490706e-02   6.6974575713688329e-03   6.6861901663429497e-03   1.0093690594561579e-03   1.0162519862820013e-03   2.4917139965390765e-03   2.5087045950067917e-03   1.0264641395982457e-02   1.0293101883191973e-02   1.9745260416785683e-02   1.9797547796942500e-02   2.0202160800191309e-02   2.5433074480110493e-02   1.6109129845972230e-02   1.2338420810780352e-02   9.5784020170231274e-03   9.5564796564955833e-03   3.8513850472009837e-03   3.8658485095283356e-03   2.3314904696478660e-03   2.3591795212003215e-03   5.9150930022076765e-03   5.9423326244680197e-03   1.2489676379288925e-02   1.2513615745708934e-02   1.8190567670050360e-02   1.8219339160976327e-02   1.5995972785994940e-02   1.9724739170310285e-02   6.5776294213603622e-03   4.9088281327596501e-03   3.8172359063125341e-03   3.8255779409755233e-03   3.4378091932876281e-03   3.4662376994314629e-03   5.6933484583333851e-03   5.7179002242471856e-03   9.2618213269423620e-03   9.2702756871586908e-03   1.2045016325349279e-02   1.2038671630157104e-02   1.2417245234690148e-02   1.2406336142547061e-02   8.5500598089260846e-03   1.0181041563196738e-02   9.6787216079924202e-04   5.5292043094481709e-04   2.3282636145362558e-03   6.2274921409313398e-04   5.6928238574071631e-03   1.8849636157142126e-03   9.0982893714370242e-03   3.8052733940732194e-03   1.0546586208586218e-02   5.2605038522654732e-03   9.1900665915593156e-03   5.3962639821107427e-03   5.8346869478090209e-03   4.1364660277605041e-03   2.2581875630969818e-03   2.2326366430352037e-03   </DataArray> 
</CellData> 
</Piece>
</UnstructuredGrid>
</VTKFile>