<?xml version="1.0"?>
<VTKFile type="UnstructuredGrid"  version="0.1"  >
<UnstructuredGrid>
<Piece  NumberOfPoints="1089" NumberOfCells="2048">
<Points>
<DataArray  type="Float64"  NumberOfComponents="3"  format="ascii">0 0 0  0.03125 0 0  0.0625 0 0  0.09375 0 0  0.125 0 0  0.15625 0 0  0.1875 0 0  0.21875 0 0  0.25 0 0  0.28125 0 0  0.3125 0 0  0.34375 0 0  0.375 0 0  0.40625 0 0  0.4375 0 0  0.46875 0 0  0.5 0 0  0.53125 0 0  0.5625 0 0  0.59375 0 0  0.625 0 0  0.65625 0 0  0.6875 0 0  0.71875 0 0  0.75 0 0  0.78125 0 0  0.8125 0 0  0.84375 0 0  0.875 0 0  0.90625 0 0  0.9375 0 0  0.96875 0 0  1 0 0  0 0.03125 0  0.03125 0.03125 0  0.0625 0.03125 0  0.09375 0.03125 0  0.125 0.03125 0  0.15625 0.03125 0  0.1875 0.03125 0  0.21875 0.03125 0  0.25 0.03125 0  0.28125 0.03125 0  0.3125 0.03125 0  0.34375 0.03125 0  0.375 0.03125 0  0.40625 0.03125 0  0.4375 0.03125 0  0.46875 0.03125 0  0.5 0.03125 0  0.53125 0.03125 0  0.5625 0.03125 0  0.59375 0.03125 0  0.625 0.03125 0  0.65625 0.03125 0  0.6875 0.03125 0  0.71875 0.03125 0  0.75 0.03125 0  0.78125 0.03125 0  0.8125 0.03125 0  0.84375 0.03125 0  0.875 0.03125 0  0.90625 0.03125 0  0.9375 0.03125 0  0.96875 0.03125 0  1 0.03125 0  0 0.0625 0  0.03125 0.0625 0  0.0625 0.0625 0  0.09375 0.0625 0  0.125 0.0625 0  0.15625 0.0625 0  0.1875 0.0625 0  0.21875 0.0625 0  0.25 0.0625 0  0.28125 0.0625 0  0.3125 0.0625 0  0.34375 0.0625 0  0.375 0.0625 0  0.40625 0.0625 0  0.4375 0.0625 0  0.46875 0.0625 0  0.5 0.0625 0  0.53125 0.0625 0  0.5625 0.0625 0  0.59375 0.0625 0  0.625 0.0625 0  0.65625 0.0625 0  0.6875 0.0625 0  0.71875 0.0625 0  0.75 0.0625 0  0.78125 0.0625 0  0.8125 0.0625 0  0.84375 0.0625 0  0.875 0.0625 0  0.90625 0.0625 0  0.9375 0.0625 0  0.96875 0.0625 0  1 0.0625 0  0 0.09375 0  0.03125 0.09375 0  0.0625 0.09375 0  0.09375 0.09375 0  0.125 0.09375 0  0.15625 0.09375 0  0.1875 0.09375 0  0.21875 0.09375 0  0.25 0.09375 0  0.28125 0.09375 0  0.3125 0.09375 0  0.34375 0.09375 0  0.375 0.09375 0  0.40625 0.09375 0  0.4375 0.09375 0  0.46875 0.09375 0  0.5 0.09375 0  0.53125 0.09375 0  0.5625 0.09375 0  0.59375 0.09375 0  0.625 0.09375 0  0.65625 0.09375 0  0.6875 0.09375 0  0.71875 0.09375 0  0.75 0.09375 0  0.78125 0.09375 0  0.8125 0.09375 0  0.84375 0.09375 0  0.875 0.09375 0  0.90625 0.09375 0  0.9375 0.09375 0  0.96875 0.09375 0  1 0.09375 0  0 0.125 0  0.03125 0.125 0  0.0625 0.125 0  0.09375 0.125 0  0.125 0.125 0  0.15625 0.125 0  0.1875 0.125 0  0.21875 0.125 0  0.25 0.125 0  0.28125 0.125 0  0.3125 0.125 0  0.34375 0.125 0  0.375 0.125 0  0.40625 0.125 0  0.4375 0.125 0  0.46875 0.125 0  0.5 0.125 0  0.53125 0.125 0  0.5625 0.125 0  0.59375 0.125 0  0.625 0.125 0  0.65625 0.125 0  0.6875 0.125 0  0.71875 0.125 0  0.75 0.125 0  0.78125 0.125 0  0.8125 0.125 0  0.84375 0.125 0  0.875 0.125 0  0.90625 0.125 0  0.9375 0.125 0  0.96875 0.125 0  1 0.125 0  0 0.15625 0  0.03125 0.15625 0  0.0625 0.15625 0  0.09375 0.15625 0  0.125 0.15625 0  0.15625 0.15625 0  0.1875 0.15625 0  0.21875 0.15625 0  0.25 0.15625 0  0.28125 0.15625 0  0.3125 0.15625 0  0.34375 0.15625 0  0.375 0.15625 0  0.40625 0.15625 0  0.4375 0.15625 0  0.46875 0.15625 0  0.5 0.15625 0  0.53125 0.15625 0  0.5625 0.15625 0  0.59375 0.15625 0  0.625 0.15625 0  0.65625 0.15625 0  0.6875 0.15625 0  0.71875 0.15625 0  0.75 0.15625 0  0.78125 0.15625 0  0.8125 0.15625 0  0.84375 0.15625 0  0.875 0.15625 0  0.90625 0.15625 0  0.9375 0.15625 0  0.96875 0.15625 0  1 0.15625 0  0 0.1875 0  0.03125 0.1875 0  0.0625 0.1875 0  0.09375 0.1875 0  0.125 0.1875 0  0.15625 0.1875 0  0.1875 0.1875 0  0.21875 0.1875 0  0.25 0.1875 0  0.28125 0.1875 0  0.3125 0.1875 0  0.34375 0.1875 0  0.375 0.1875 0  0.40625 0.1875 0  0.4375 0.1875 0  0.46875 0.1875 0  0.5 0.1875 0  0.53125 0.1875 0  0.5625 0.1875 0  0.59375 0.1875 0  0.625 0.1875 0  0.65625 0.1875 0  0.6875 0.1875 0  0.71875 0.1875 0  0.75 0.1875 0  0.78125 0.1875 0  0.8125 0.1875 0  0.84375 0.1875 0  0.875 0.1875 0  0.90625 0.1875 0  0.9375 0.1875 0  0.96875 0.1875 0  1 0.1875 0  0 0.21875 0  0.03125 0.21875 0  0.0625 0.21875 0  0.09375 0.21875 0  0.125 0.21875 0  0.15625 0.21875 0  0.1875 0.21875 0  0.21875 0.21875 0  0.25 0.21875 0  0.28125 0.21875 0  0.3125 0.21875 0  0.34375 0.21875 0  0.375 0.21875 0  0.40625 0.21875 0  0.4375 0.21875 0  0.46875 0.21875 0  0.5 0.21875 0  0.53125 0.21875 0  0.5625 0.21875 0  0.59375 0.21875 0  0.625 0.21875 0  0.65625 0.21875 0  0.6875 0.21875 0  0.71875 0.21875 0  0.75 0.21875 0  0.78125 0.21875 0  0.8125 0.21875 0  0.84375 0.21875 0  0.875 0.21875 0  0.90625 0.21875 0  0.9375 0.21875 0  0.96875 0.21875 0  1 0.21875 0  0 0.25 0  0.03125 0.25 0  0.0625 0.25 0  0.09375 0.25 0  0.125 0.25 0  0.15625 0.25 0  0.1875 0.25 0  0.21875 0.25 0  0.25 0.25 0  0.28125 0.25 0  0.3125 0.25 0  0.34375 0.25 0  0.375 0.25 0  0.40625 0.25 0  0.4375 0.25 0  0.46875 0.25 0  0.5 0.25 0  0.53125 0.25 0  0.5625 0.25 0  0.59375 0.25 0  0.625 0.25 0  0.65625 0.25 0  0.6875 0.25 0  0.71875 0.25 0  0.75 0.25 0  0.78125 0.25 0  0.8125 0.25 0  0.84375 0.25 0  0.875 0.25 0  0.90625 0.25 0  0.9375 0.25 0  0.96875 0.25 0  1 0.25 0  0 0.28125 0  0.03125 0.28125 0  0.0625 0.28125 0  0.09375 0.28125 0  0.125 0.28125 0  0.15625 0.28125 0  0.1875 0.28125 0  0.21875 0.28125 0  0.25 0.28125 0  0.28125 0.28125 0  0.3125 0.28125 0  0.34375 0.28125 0  0.375 0.28125 0  0.40625 0.28125 0  0.4375 0.28125 0  0.46875 0.28125 0  0.5 0.28125 0  0.53125 0.28125 0  0.5625 0.28125 0  0.59375 0.28125 0  0.625 0.28125 0  0.65625 0.28125 0  0.6875 0.28125 0  0.71875 0.28125 0  0.75 0.28125 0  0.78125 0.28125 0  0.8125 0.28125 0  0.84375 0.28125 0  0.875 0.28125 0  0.90625 0.28125 0  0.9375 0.28125 0  0.96875 0.28125 0  1 0.28125 0  0 0.3125 0  0.03125 0.3125 0  0.0625 0.3125 0  0.09375 0.3125 0  0.125 0.3125 0  0.15625 0.3125 0  0.1875 0.3125 0  0.21875 0.3125 0  0.25 0.3125 0  0.28125 0.3125 0  0.3125 0.3125 0  0.34375 0.3125 0  0.375 0.3125 0  0.40625 0.3125 0  0.4375 0.3125 0  0.46875 0.3125 0  0.5 0.3125 0  0.53125 0.3125 0  0.5625 0.3125 0  0.59375 0.3125 0  0.625 0.3125 0  0.65625 0.3125 0  0.6875 0.3125 0  0.71875 0.3125 0  0.75 0.3125 0  0.78125 0.3125 0  0.8125 0.3125 0  0.84375 0.3125 0  0.875 0.3125 0  0.90625 0.3125 0  0.9375 0.3125 0  0.96875 0.3125 0  1 0.3125 0  0 0.34375 0  0.03125 0.34375 0  0.0625 0.34375 0  0.09375 0.34375 0  0.125 0.34375 0  0.15625 0.34375 0  0.1875 0.34375 0  0.21875 0.34375 0  0.25 0.34375 0  0.28125 0.34375 0  0.3125 0.34375 0  0.34375 0.34375 0  0.375 0.34375 0  0.40625 0.34375 0  0.4375 0.34375 0  0.46875 0.34375 0  0.5 0.34375 0  0.53125 0.34375 0  0.5625 0.34375 0  0.59375 0.34375 0  0.625 0.34375 0  0.65625 0.34375 0  0.6875 0.34375 0  0.71875 0.34375 0  0.75 0.34375 0  0.78125 0.34375 0  0.8125 0.34375 0  0.84375 0.34375 0  0.875 0.34375 0  0.90625 0.34375 0  0.9375 0.34375 0  0.96875 0.34375 0  1 0.34375 0  0 0.375 0  0.03125 0.375 0  0.0625 0.375 0  0.09375 0.375 0  0.125 0.375 0  0.15625 0.375 0  0.1875 0.375 0  0.21875 0.375 0  0.25 0.375 0  0.28125 0.375 0  0.3125 0.375 0  0.34375 0.375 0  0.375 0.375 0  0.40625 0.375 0  0.4375 0.375 0  0.46875 0.375 0  0.5 0.375 0  0.53125 0.375 0  0.5625 0.375 0  0.59375 0.375 0  0.625 0.375 0  0.65625 0.375 0  0.6875 0.375 0  0.71875 0.375 0  0.75 0.375 0  0.78125 0.375 0  0.8125 0.375 0  0.84375 0.375 0  0.875 0.375 0  0.90625 0.375 0  0.9375 0.375 0  0.96875 0.375 0  1 0.375 0  0 0.40625 0  0.03125 0.40625 0  0.0625 0.40625 0  0.09375 0.40625 0  0.125 0.40625 0  0.15625 0.40625 0  0.1875 0.40625 0  0.21875 0.40625 0  0.25 0.40625 0  0.28125 0.40625 0  0.3125 0.40625 0  0.34375 0.40625 0  0.375 0.40625 0  0.40625 0.40625 0  0.4375 0.40625 0  0.46875 0.40625 0  0.5 0.40625 0  0.53125 0.40625 0  0.5625 0.40625 0  0.59375 0.40625 0  0.625 0.40625 0  0.65625 0.40625 0  0.6875 0.40625 0  0.71875 0.40625 0  0.75 0.40625 0  0.78125 0.40625 0  0.8125 0.40625 0  0.84375 0.40625 0  0.875 0.40625 0  0.90625 0.40625 0  0.9375 0.40625 0  0.96875 0.40625 0  1 0.40625 0  0 0.4375 0  0.03125 0.4375 0  0.0625 0.4375 0  0.09375 0.4375 0  0.125 0.4375 0  0.15625 0.4375 0  0.1875 0.4375 0  0.21875 0.4375 0  0.25 0.4375 0  0.28125 0.4375 0  0.3125 0.4375 0  0.34375 0.4375 0  0.375 0.4375 0  0.40625 0.4375 0  0.4375 0.4375 0  0.46875 0.4375 0  0.5 0.4375 0  0.53125 0.4375 0  0.5625 0.4375 0  0.59375 0.4375 0  0.625 0.4375 0  0.65625 0.4375 0  0.6875 0.4375 0  0.71875 0.4375 0  0.75 0.4375 0  0.78125 0.4375 0  0.8125 0.4375 0  0.84375 0.4375 0  0.875 0.4375 0  0.90625 0.4375 0  0.9375 0.4375 0  0.96875 0.4375 0  1 0.4375 0  0 0.46875 0  0.03125 0.46875 0  0.0625 0.46875 0  0.09375 0.46875 0  0.125 0.46875 0  0.15625 0.46875 0  0.1875 0.46875 0  0.21875 0.46875 0  0.25 0.46875 0  0.28125 0.46875 0  0.3125 0.46875 0  0.34375 0.46875 0  0.375 0.46875 0  0.40625 0.46875 0  0.4375 0.46875 0  0.46875 0.46875 0  0.5 0.46875 0  0.53125 0.46875 0  0.5625 0.46875 0  0.59375 0.46875 0  0.625 0.46875 0  0.65625 0.46875 0  0.6875 0.46875 0  0.71875 0.46875 0  0.75 0.46875 0  0.78125 0.46875 0  0.8125 0.46875 0  0.84375 0.46875 0  0.875 0.46875 0  0.90625 0.46875 0  0.9375 0.46875 0  0.96875 0.46875 0  1 0.46875 0  0 0.5 0  0.03125 0.5 0  0.0625 0.5 0  0.09375 0.5 0  0.125 0.5 0  0.15625 0.5 0  0.1875 0.5 0  0.21875 0.5 0  0.25 0.5 0  0.28125 0.5 0  0.3125 0.5 0  0.34375 0.5 0  0.375 0.5 0  0.40625 0.5 0  0.4375 0.5 0  0.46875 0.5 0  0.5 0.5 0  0.53125 0.5 0  0.5625 0.5 0  0.59375 0.5 0  0.625 0.5 0  0.65625 0.5 0  0.6875 0.5 0  0.71875 0.5 0  0.75 0.5 0  0.78125 0.5 0  0.8125 0.5 0  0.84375 0.5 0  0.875 0.5 0  0.90625 0.5 0  0.9375 0.5 0  0.96875 0.5 0  1 0.5 0  0 0.53125 0  0.03125 0.53125 0  0.0625 0.53125 0  0.09375 0.53125 0  0.125 0.53125 0  0.15625 0.53125 0  0.1875 0.53125 0  0.21875 0.53125 0  0.25 0.53125 0  0.28125 0.53125 0  0.3125 0.53125 0  0.34375 0.53125 0  0.375 0.53125 0  0.40625 0.53125 0  0.4375 0.53125 0  0.46875 0.53125 0  0.5 0.53125 0  0.53125 0.53125 0  0.5625 0.53125 0  0.59375 0.53125 0  0.625 0.53125 0  0.65625 0.53125 0  0.6875 0.53125 0  0.71875 0.53125 0  0.75 0.53125 0  0.78125 0.531
[...]
<CellData  Scalars="f_132299"> 
<DataArray  type="Float64"  Name="f_132299"  format="ascii">5.4699282762805973e-13   5.4280311248782872e-13   5.2240194560515517e-13   5.3563303712218742e-13   4.8876088359342290e-13   5.0440518732600532e-13   4.4739769140850500e-13   4.6505582486122516e-13   3.9990627026054714e-13   4.1906987491970262e-13   3.4811182795527213e-13   3.6822288603692159e-13   2.9400466097092955e-13   3.1447330064662780e-13   2.3966398566683997e-13   2.5988821088855967e-13   1.8717803107492028e-13   2.0656584346475206e-13   1.3856377223625402e-13   1.5655556004635012e-13   9.5689409002421468e-14   1.1177931706845895e-13   6.0202567097787674e-14   7.3957881191664906e-14   3.3466978223529395e-14   4.4544729392263110e-14   1.6510071309872159e-14   2.4670204079464207e-14   9.9834883591336575e-15   1.5098079658304188e-14   1.4138041952146454e-14   1.6196213462790220e-14   2.8814076630786714e-14   2.7922410419960649e-14   5.3447604496478217e-14   4.9826045304632800e-14   8.7091979206035854e-14   8.1065380542263151e-14   1.2845427546501186e-13   1.2043991423107197e-13   1.7594497606152695e-13   1.6643651542537036e-13   2.2773905715024812e-13   2.1728757399807853e-13   2.8184612582986197e-13   2.7103893084532760e-13   3.3618691245859729e-13   3.2562497966427687e-13   3.8867321448629959e-13   3.7894805372721132e-13   4.3728812407200880e-13   4.2895907109113867e-13   4.8016419405870058e-13   4.7373627780688426e-13   5.1565517295640050e-13   5.1155939836668589e-13   5.4240562890466004e-13   5.4097574117501750e-13   5.5944308640410641e-13   5.6085377092078853e-13   5.6601646901628564e-13   5.7045653075003959e-13   5.5184397575199055e-13   5.6935043979583963e-13   5.2962749428106854e-13   5.0746964015212154e-13   5.0227334948123927e-13   4.9722980852722346e-13   4.6665808879233224e-13   4.6452787208246292e-13   4.2421235808880863e-13   4.2510224282336794e-13   3.7656819889495991e-13   3.8028242760172982e-13   3.2555757673927335e-13   3.3179497029830624e-13   2.7314122048714924e-13   2.8150426332948898e-13   2.2133364357390480e-13   2.3134316757572161e-13   1.7212586007802749e-13   1.8323959518535423e-13   1.2740893248924795e-13   1.3904228939367629e-13   8.8901323857344041e-14   1.0044981362826246e-13   5.8082868605214381e-14   6.8945303973220759e-14   3.6137907893678484e-14   4.5739489949204545e-14   2.3909778219163313e-14   3.1724176137026529e-14   2.1868403578626757e-14   2.7437975619512979e-14   3.0092237214062186e-14   3.3045614112685123e-14   4.8265247184584840e-14   4.8331601189275849e-14   7.5689061753885970e-14   7.2708512390793201e-14   1.1130980798507867e-13   1.0523956427412722e-13   1.5375861232879164e-13   1.4467461505188585e-13   2.0140420715803268e-13   1.8949820753167143e-13   2.5241562244690108e-13   2.3798780831892454e-13   3.0483255564208519e-13   2.8828000555591712e-13   3.5664072042281814e-13   3.3844212203235630e-13   4.0584929602101380e-13   3.8654649098453937e-13   4.5056752301594783e-13   4.3074454809681533e-13   4.8907760450291609e-13   4.6933784283154888e-13   5.1990108601754781e-13   5.0084337768449477e-13   5.4185299281573541e-13   5.2405009979908097e-13   5.5409504259916417e-13   5.3806339870803746e-13   5.5590770183298073e-13   5.4235619020398723e-13   5.3748306459893284e-13   5.3677413221848128e-13   4.8769951107715489e-13   4.6389674348820028e-13   4.5876476944093864e-13   4.5126125774781765e-13   4.2295061600228360e-13   4.1823410923425866e-13   3.8165438288827780e-13   3.7991683771489127e-13   3.3647083893926040e-13   3.3758838131600451e-13   2.8913714942615732e-13   2.9288964550355259e-13   2.4147228748565302e-13   2.4753841865235201e-13   1.9530810483823266e-13   2.0327716055159787e-13   1.5241874373238344e-13   1.6180681607758674e-13   1.1445246762329258e-13   1.2472108586085036e-13   8.2868329264294324e-14   9.3445183013024786e-14   5.8880108274415430e-14   6.9181048014588098e-14   4.3409671233923099e-14   5.2861156835483937e-14   3.7051547751696188e-14   4.5112687556458430e-14   4.0050084705140102e-14   4.6233419880119085e-14   5.2290057162468207e-14   5.6180292942167166e-14   7.3301097119263802e-14   7.4571061052358386e-14   1.0227577008011193e-13   1.0069898383790669e-13   1.3810060497134079e-13   1.3355998634866330e-13   1.7939888516927215e-13   1.7189124548649313e-13   2.2458355656284186e-13   2.1421971996724985e-13   2.7191822013760285e-13   2.5891875890052474e-13   3.1958386660474050e-13   3.0427061344501232e-13   3.6574878941006165e-13   3.4853244905311875e-13   4.0863899567915047e-13   3.9000331879541385e-13   4.4660636548860459e-13   4.2708952554797094e-13   4.7819198195247287e-13   4.5836581428780287e-13   5.0218147021151780e-13   4.8263016573520640e-13   5.1764877148345834e-13   4.9894963495571522e-13   5.2400764500829384e-13   5.0669560057089986e-13   5.2080403178728043e-13   5.0558330656843984e-13   4.9871854566447054e-13   4.9572110967309700e-13   4.3877811191122133e-13   4.1385471036578233e-13   4.0928639711223686e-13   3.9944591291864027e-13   3.7440549356912274e-13   3.6711302593534666e-13   3.3553367833081140e-13   3.3107897563466761e-13   2.9418242859360140e-13   2.9253261214298570e-13   2.5194123725619426e-13   2.5296575764100397e-13   2.1043312776153592e-13   2.1389786927863229e-13   1.7125326417387345e-13   1.7683012826689486e-13   1.3590731823881012e-13   1.4318706164906987e-13   1.0575363589939096e-13   1.1426152888838308e-13   8.1951024623399160e-14   9.1165119976263717e-14   6.5414219709615713e-14   7.4785422031572189e-14   5.6778732220874471e-14   6.5751905209497855e-14   5.6376427746321002e-14   6.4411730087967260e-14   6.4222773932169923e-14   7.0816405716997537e-14   8.0016246783500643e-14   8.4719810102160277e-14   1.0314991861194760e-13   1.0558764870130168e-13   1.3273478239709932e-13   1.3261798725640833e-13   1.6763391631312988e-13   1.6477206982759619e-13   2.0650617561691334e-13   2.0081423765997592e-13   2.4785773294104931e-13   2.3935941479708972e-13   2.9009948638337433e-13   2.7892633544291694e-13   3.3160812888510388e-13   3.1799446724502303e-13   3.7078852917643858e-13   3.5506244226289980e-13   4.0613502343560762e-13   3.8870574742792771e-13   4.3628921473831464e-13   4.1763145950394192e-13   4.6009211307054734e-13   4.4072788730682528e-13   4.7662815621652181e-13   4.5710734863666170e-13   4.8525922732791399e-13   4.6614009963975782e-13   4.8566200382585161e-13   4.6747830670663548e-13   4.7760327787883236e-13   4.6108257894798187e-13   4.5245216750187891e-13   4.4729449763545189e-13   3.8457971053386428e-13   3.5927758007858263e-13   3.5545582923539763e-13   3.4377767760646221e-13   3.2258028967094707e-13   3.1315545173040464e-13   2.8731427120883078e-13   2.8050186577558886e-13   2.5102697938047111e-13   2.4687856917698260e-13   2.1511249576955218e-13   2.1358466874783327e-13   1.8095093034295696e-13   1.8189837177188609e-13   1.4985515563126783e-13   1.5303735676133824e-13   1.2302014579353299e-13   1.2811079768083500e-13   1.0147715597183127e-13   1.0807659028148329e-13   8.6054076268390051e-14   9.3704632533001677e-14   7.7343613702976446e-14   8.5547227739674948e-14   7.5680513144766226e-14   8.3917861023467562e-14   8.1128692776732755e-14   8.8879150603139291e-14   9.3478787771412760e-14   1.0024044030694657e-13   1.1225619624003286e-13   1.1756512577107782e-13   1.3673931811951158e-13   1.4018743259440703e-13   1.6598728603299302e-13   1.6723800150159255e-13   1.9887612243862891e-13   1.9767729718074335e-13   2.3414193349848683e-13   2.3033555680699862e-13   2.7042947962785342e-13   2.6395774295176841e-13   3.0634425572298333e-13   2.9725177317652995e-13   3.4050607853329738e-13   3.2893817250100186e-13   3.7160211841332120e-13   3.5779924015387335e-13   3.9843733513018817e-13   3.8272583948123772e-13   4.1998034974344834e-13   4.0276001677987843e-13   4.3540307464085185e-13   4.1713178818504124e-13   4.4411224173347331e-13   4.2528880607402375e-13   4.4577123096678776e-13   4.2691747631424951e-13   4.4032209882036248e-13   4.2195498153764043e-13   4.2776004358254345e-13   4.1060314465144409e-13   4.0024461066547981e-13   3.9341469147366203e-13   3.2718724055699233e-13   3.0226316769067535e-13   2.9935815060727491e-13   2.8639730934707224e-13   2.6949433451941196e-13   2.5843607477818298e-13   2.3887344742626649e-13   2.3012875768841709e-13   2.0868283004941264e-13   2.0237911305029764e-13   1.8008234513742197e-13   1.7625808725968942e-13   1.5417121319379923e-13   1.5276816683428509e-13   1.3194526486904623e-13   1.3281200670992559e-13   1.1425861566058035e-13   1.1715655766707609e-13   1.0179095133267232e-13   1.0640344573939156e-13   9.5021395835794106e-14   1.0096590710469100e-13   9.4210100699466194e-14   1.0105290013141849e-13   9.9388246271953051e-14   1.0666108015063164e-13   1.1035684267395743e-13   1.1757492789044092e-13   1.2669437644430434e-13   1.3337503132525871e-13   1.4777300885519366e-13   1.5345420294424985e-13   1.7278270329056569e-13   1.7704081321672970e-13   2.0076235438384968e-13   2.0322844354643291e-13   2.3063672254523187e-13   2.3101071910644467e-13   2.6125775439393192e-13   2.5931998285857775e-13   2.9144870089901637e-13   2.8706832444430896e-13   3.2004933730633751e-13   3.1318938708311607e-13   3.4596054617418878e-13   3.3667934564433732e-13   3.6818654824495765e-13   3.5663548100453486e-13   3.8587315949815288e-13   3.7229086762980880e-13   3.9834058804650818e-13   3.8304384578444289e-13   4.0510959176788355e-13   3.8848112875349856e-13   4.0591968204796516e-13   3.8839376165387574e-13   4.0073815011256190e-13   3.8278507646744917e-13   3.8976747826166683e-13   3.7187068598463531e-13   3.7322256983192606e-13   3.5608003036874559e-13   3.4415953802360205e-13   3.3614717451552866e-13   2.6881058074895142e-13   2.4500240132563427e-13   2.4315089291481061e-13   2.2951030122976102e-13   2.1718766104153838e-13   2.0505748559782205e-13   1.9207123623937903e-13   1.8189501346084221e-13   1.6877532563321528e-13   1.6074424240724414e-13   1.4819494976716545e-13   1.4242054844041429e-13   1.3112109204432773e-13   1.2762677221291349e-13   1.1820995787798574e-13   1.1693133999685011e-13   1.0995771253414019e-13   1.1074530277154953e-13   1.0668148694016790e-13   1.0930638736138846e-13   1.0850718259764593e-13   1.1266989370959074e-13   1.1536463832475170e-13   1.2070656279988754e-13   1.2699032637221949e-13   1.3310754855066453e-13   1.4293747932284136e-13   1.4939628715027789e-13   1.6259325872707537e-13   1.6894681131425987e-13   1.8520230582200691e-13   1.9100780565253294e-13   2.0989576926691917e-13   2.1473147899341613e-13   2.3572469431346869e-13   2.3920614419249724e-13   2.6169649018883573e-13   2.6349125340009333e-13   2.8681307415501135e-13   2.8665354237340765e-13   3.1010922616372699e-13   3.0780289475450722e-13   3.3068967988411377e-13   3.2612654802511595e-13   3.4776352433220316e-13   3.4092032654726982e-13   3.6067459355360483e-13   3.5161570152433853e-13   3.6892667939301186e-13   3.5780163785335035e-13   3.7220258817063547e-13   3.5924039206557231e-13   3.7037637122470089e-13   3.5587664107423755e-13   3.6351797510825251e-13   3.4783967379078137e-13   3.5188955994696912e-13   3.3543837066919771e-13   3.3593899489284514e-13   3.1914957897926050e-13   3.1608639571683199e-13   2.9960821270824943e-13   2.8635747035503110e-13   2.7769317794216205e-13   2.1169455746455563e-13   1.8969568794682652e-13   1.8899409264530660e-13   1.7530296063251932e-13   1.6766987808256384e-13   1.5507111128040696e-13   1.4870602640623926e-13   1.3765430533225673e-13   1.3283804515196867e-13   1.2357409705826230e-13   1.2067563496773451e-13   1.1337254633345093e-13   1.1268623828441356e-13   1.0744046467307282e-13   1.0917693413181604e-13   1.0600572037328116e-13   1.1028258625183636e-13   1.0912346687245594e-13   1.1596070925622208e-13   1.1667389000682077e-13   1.2599309542836854e-13   1.2836683456264290e-13   1.3999420502812615e-13   1.4375294715161351e-13   1.5742598284681211e-13   1.6224094738418827e-13   1.7761853552160679e-13   1.8312035093794406e-13   1.9979587499936609e-13   2.0558877343755363e-13   2.2310573906352220e-13   2.2878276563382670e-13   2.4665234299974391e-13   2.5181099511089561e-13   2.6953080375112975e-13   2.7378849944348640e-13   2.9086191361846060e-13   2.9387069451493601e-13   3.0982592708294794e-13   3.1128583106613194e-13   3.2569406226210436e-13   3.2536465219156883e-13   3.3785650630763278e-13   3.3556611203629078e-13   3.4584584856093728e-13   3.4149816738997710e-13   3.4935504109891603e-13   3.4293284331878082e-13   3.4824919912942971e-13   3.3981499391198260e-13   3.4257077984201972e-13   3.3226442415213207e-13   3.3253798328706248e-13   3.2057128147677214e-13   3.1853619111422088e-13   3.0518495738509941e-13   3.0110221181383759e-13   2.8669678751062495e-13   2.8090514750129673e-13   2.6581766690205704e-13   2.5854836045191232e-13   2.4335799152344132e-13   2.2905986197885552e-13   2.2029938608037736e-13   1.5803462765478130e-13   1.3846837709158794e-13   1.3896919946884304e-13   1.2585851254745780e-13   1.2284397381281637e-13   1.1039796690771558e-13   1.1044442178381656e-13   9.9106781073001503e-14   1.0225214674410402e-13   9.2297078887160400e-14   9.8582031099894695e-14   9.0230358082170083e-14   9.9575145277648090e-14   9.2984984041252374e-14   1.0519335840238779e-13   1.0045500836789246e-13   1.1522076747484861e-13   1.1235336878497555e-13   1.2927202885540061e-13   1.2822281499084557e-13   1.4680716085461294e-13   1.4745349525078466e-13   1.6715229788633595e-13   1.6930638554859488e-13   1.8952558724265729e-13   1.9294169131599560e-13   2.1306723557620525e-13   2.1745112044274075e-13   2.3687255027291118e-13   2.4189278871432182e-13   2.6002670613375378e-13   2.6532741595057783e-13   2.8163990136448934e-13   2.8685442194664671e-13   3.0088155186524973e-13   3.0564653511496873e-13   3.1701220974221522e-13   3.2098158387103831e-13   3.2941197940820001e-13   3.3227024905473012e-13   3.3760433924295783e-13   3.3907871089234496e-13   3.4127445339886899e-13   3.4114532021318056e-13   3.4028127021605133e-13   3.3839065331140867e-13   3.3466294259575401e-13   3.3092056417753580e-13   3.2463536379057691e-13   3.1902211688108204e-13   3.1058386863523696e-13   3.0315255606388591e-13   2.9304844592360251e-13   2.8392173267257744e-13   2.7270283234854332e-13   2.6206870654808398e-13   2.5032778473632650e-13   2.3843333627400840e-13   2.2678104171636860e-13   2.1392440026171227e-13   2.0282002376711524e-13   1.8949103515003082e-13   1.7446926440543805e-13   1.6617146021937217e-13   1.0989310194681425e-13   9.3289071857135954e-14   9.4998772091613023e-14   8.3077105499584168e-14   8.4432591055233232e-14   7.2754855689979446e-14   7.8756765296159531e-14   6.7733816074783685e-14   7.8193006300547581e-14   6.8115146314461421e-14   8.2763171625824683e-14   7.3883324881082460e-14   9.2291656020310955e-14   8.4815850181820449e-14   1.0641230531350186e-13   1.0049251964158877e-13   1.2458247055598271e-13   1.2031088860542958e-13   1.4610388522001778e-13   1.4350934469293439e-13   1.7014949402950283e-13   1.6919638521779075e-13   1.9579523772889029e-13   1.9638487173349565e-13   2.2205556442031115e-13   2.2402996589575384e-13   2.4792130401517090e-13   2.5106928193385203e-13   2.7239845011909431e-13   2.7646371366728168e-13   2.9454635907555109e-13   2.9923736680904689e-13   3.1351389822849540e-13   3.1851506201187167e-13   3.2857215427603961e-13   3.3355596743989630e-13   3.3914244476018272e-13   3.4378206841384661e-13   3.4481855623593401e-13   3.4880038006619141e-13   3.4538235454851885e-13   3.4841804941879352e-13   3.4081216740010120e-13   3.4264976652709324e-13   3.3128361721600183e-13   3.3171719995246990e-13   3.1716287252422856e-13   3.1604047831591515e-13   2.9899257805509803e-13   2.9622204536175551e-13   2.7747099987465058e-13   2.7302350986727716e-13   2.5342520204163061e-13   2.4733637612079036e-13   2.2777913864929559e-13   2.2014781173794164e-13   2.0151746402243504e-13   1.9250272215876389e-13   1.7564669890426044e-13   1.6546400320814202e-13   1.5104314838582426e-13   1.4007745045959005e-13   1.2468358075162606e-13   1.1738956122915598e-13   6.9120103621648457e-14   5.5893966744079538e-14   5.8772638339130764e-14   4.8602814439287293e-14   5.3911878657877213e-14   4.3588402667099490e-14   5.4860792175516852e-14   4.4741068438259600e-14   6.1585198849413136e-14   5.1957599444933218e-14   7.3826967126171609e-14   6.4959651046911641e-14   9.1115673106964891e-14   8.3246995049585768e-14   1.1278693243427180e-13   1.0611681049557762e-13   1.3800792963578412e-13   1.3269022179136983e-13   1.6580943721122635e-13   1.6194602475113055e-13   1.9512305922122812e-13   1.9275993550195320e-13   2.2482228969025446e-13   2.2394779272420050e-13   2.5376580365040978e-13   2.5431106457618569e-13   2.8084131771847301e-13   2.8268290743608448e-13   3.0500833455847756e-13   3.0797300706355709e-13   3.2533812858137043e-13   3.2920947876787465e-13   3.4104943628006811e-13   3.4557621638101003e-13   3.5153847964159296e-13   3.5644425472569957e-13   3.5640216887951755e-13   3.6139594035311580e-13   3.5545359283480066e-13   3.6024098168125059e-13   3.4872920178296071e-13   3.5302376175649261e-13   3.3648740668606896e-13   3.4002163262953509e-13   3.1919864879994725e-13   3.2173425692105190e-13   2.9752732136172485e-13   2.9886440620238539e-13   2.7230623841049738e-13   2.7229095417004404e-13   2.4450462929794081e-13   2.4303510283938792e-13   2.1519089581202006e-13   2.1222113805102906e-13   1.8549146574083981e-13   1.8103324283446479e-13   1.5654700764871540e-13   1.5067001578521329e-13   1.2946723713576335e-13   1.2229878069254885e-13   1.0520756516830599e-13   9.7016189323303293e-14   8.1616110299027852e-14   7.5828375437210278e-14   3.7282543378491231e-14   2.7720121208862102e-14   3.1682983217459975e-14   2.3760470002141828e-14   3.2454747057852251e-14   2.4019469970157495e-14   3.9674812006863905e-14   3.1012145446465470e-14   5.3066947814248111e-14   4.4445366913274276e-14   7.2116825693604888e-14   6.3802267432896439e-14   9.6092385115368828e-14   8.8338706502643575e-14   1.2407226346288664e-13   1.1711174027937907e-13   1.5498120897149126e-13   1.4901563557347673e-13   1.8763140851363537e-13   1.8282434216430903e-13   2.2076813343314131e-13   2.1723861044256947e-13   2.5311795803433119e-13   2.5093591941962780e-13   2.8343769661270038e-13   2.8262130050689673e-13   3.1056217838201683e-13   3.1107710230865005e-13   3.3344902434600584e-13   3.3520978425761918e-13   3.5121870532830451e-13   3.5409194075470799e-13   3.6318834176376239e-13   3.6699794084385725e-13   3.6889794634276880e-13   3.7343181379928258e-13   3.6812810103118452e-13   3.7314630899500661e-13   3.6090838916019208e-13   3.6615239760054178e-13   3.4751625856163168e-13   3.5271885095939060e-13   3.2846635947630441e-13   3.3336191186609581e-13   3.0449076699568006e-13   3.0882545567614068e-13   2.7651084813233471e-13   2.8005240365553678e-13   2.4560185467329969e-13   2.4814848721471931e-13   2.1295160142046417e-13   2.1433975563077348e-13   1.7981481985766830e-13   1.7992546011137129e-13   1.4746488961172971e-13   1.4622813677941510e-13   1.1714461257490643e-13   1.1454281777070984e-13   9.0017336393102394e-14   8.6087550931343209e-14   6.7074748383215730e-14   6.1962083717162517e-14   4.6921938833417992e-14   4.3085093630144712e-14   1.5603931044815359e-14   9.8502313771783752e-15   1.4770864744932503e-14   9.5047502935520786e-15   2.0885792801362511e-14   1.4800087609983925e-14   3.3782416115310969e-14   2.7074647994694577e-14   5.2965602371605233e-14   4.5867142688760491e-14   7.7698463235344160e-14   7.0455651823819703e-14   1.0703053624287802e-13   9.9895311414009186e-14   1.3983460652093624e-13   1.3305477791242188e-13   1.7485003243669694e-13   1.6865975136931031e-13   2.1073119075618250e-13   2.0534195302201173e-13   2.4609918887761490e-13   2.4169170666304038e-13   2.7959485453784751e-13   2.7631211191090722e-13   3.0993096808871260e-13   3.0787272621418006e-13   3.3594172959341565e-13   3.3516069299095521e-13   3.566275