<?xml version="1.0"?>
<VTKFile type="UnstructuredGrid"  version="0.1"  >
<UnstructuredGrid>
<Piece  NumberOfPoints="16641" NumberOfCells="32768">
<Points>
<DataArray  type="Float64"  NumberOfComponents="3"  format="ascii">0 0 0  0.0078125 0 0  0.015625 0 0  0.0234375 0 0  0.03125 0 0  0.0390625 0 0  0.046875 0 0  0.0546875 0 0  0.0625 0 0  0.0703125 0 0  0.078125 0 0  0.0859375 0 0  0.09375 0 0  0.1015625 0 0  0.109375 0 0  0.1171875 0 0  0.125 0 0  0.1328125 0 0  0.140625 0 0  0.1484375 0 0  0.15625 0 0  0.1640625 0 0  0.171875 0 0  0.1796875 0 0  0.1875 0 0  0.1953125 0 0  0.203125 0 0  0.2109375 0 0  0.21875 0 0  0.2265625 0 0  0.234375 0 0  0.2421875 0 0  0.25 0 0  0.2578125 0 0  0.265625 0 0  0.2734375 0 0  0.28125 0 0  0.2890625 0 0  0.296875 0 0  0.3046875 0 0  0.3125 0 0  0.3203125 0 0  0.328125 0 0  0.3359375 0 0  0.34375 0 0  0.3515625 0 0  0.359375 0 0  0.3671875 0 0  0.375 0 0  0.3828125 0 0  0.390625 0 0  0.3984375 0 0  0.40625 0 0  0.4140625 0 0  0.421875 0 0  0.4296875 0 0  0.4375 0 0  0.4453125 0 0  0.453125 0 0  0.4609375 0 0  0.46875 0 0  0.4765625 0 0  0.484375 0 0  0.4921875 0 0  0.5 0 0  0.5078125 0 0  0.515625 0 0  0.5234375 0 0  0.53125 0 0  0.5390625 0 0  0.546875 0 0  0.5546875 0 0  0.5625 0 0  0.5703125 0 0  0.578125 0 0  0.5859375 0 0  0.59375 0 0  0.6015625 0 0  0.609375 0 0  0.6171875 0 0  0.625 0 0  0.6328125 0 0  0.640625 0 0  0.6484375 0 0  0.65625 0 0  0.6640625 0 0  0.671875 0 0  0.6796875 0 0  0.6875 0 0  0.6953125 0 0  0.703125 0 0  0.7109375 0 0  0.71875 0 0  0.7265625 0 0  0.734375 0 0  0.7421875 0 0  0.75 0 0  0.7578125 0 0  0.765625 0 0  0.7734375 0 0  0.78125 0 0  0.7890625 0 0  0.796875 0 0  0.8046875 0 0  0.8125 0 0  0.8203125 0 0  0.828125 0 0  0.8359375 0 0  0.84375 0 0  0.8515625 0 0  0.859375 0 0  0.8671875 0 0  0.875 0 0  0.8828125 0 0  0.890625 0 0  0.8984375 0 0  0.90625 0 0  0.9140625 0 0  0.921875 0 0  0.9296875 0 0  0.9375 0 0  0.9453125 0 0  0.953125 0 0  0.9609375 0 0  0.96875 0 0  0.9765625 0 0  0.984375 0 0  0.9921875 0 0  1 0 0  0 0.0078125 0  0.0078125 0.0078125 0  0.015625 0.0078125 0  0.0234375 0.0078125 0  0.03125 0.0078125 0  0.0390625 0.0078125 0  0.046875 0.0078125 0  0.0546875 0.0078125 0  0.0625 0.0078125 0  0.0703125 0.0078125 0  0.078125 0.0078125 0  0.0859375 0.0078125 0  0.09375 0.0078125 0  0.1015625 0.0078125 0  0.109375 0.0078125 0  0.1171875 0.0078125 0  0.125 0.0078125 0  0.1328125 0.0078125 0  0.140625 0.0078125 0  0.1484375 0.0078125 0  0.15625 0.0078125 0  0.1640625 0.0078125 0  0.171875 0.0078125 0  0.1796875 0.0078125 0  0.1875 0.0078125 0  0.1953125 0.0078125 0  0.203125 0.0078125 0  0.2109375 0.0078125 0  0.21875 0.0078125 0  0.2265625 0.0078125 0  0.234375 0.0078125 0  0.2421875 0.0078125 0  0.25 0.0078125 0  0.2578125 0.0078125 0  0.265625 0.0078125 0  0.2734375 0.0078125 0  0.28125 0.0078125 0  0.2890625 0.0078125 0  0.296875 0.0078125 0  0.3046875 0.0078125 0  0.3125 0.0078125 0  0.3203125 0.0078125 0  0.328125 0.0078125 0  0.3359375 0.0078125 0  0.34375 0.0078125 0  0.3515625 0.0078125 0  0.359375 0.0078125 0  0.3671875 0.0078125 0  0.375 0.0078125 0  0.3828125 0.0078125 0  0.390625 0.0078125 0  0.3984375 0.0078125 0  0.40625 0.0078125 0  0.4140625 0.0078125 0  0.421875 0.0078125 0  0.4296875 0.0078125 0  0.4375 0.0078125 0  0.4453125 0.0078125 0  0.453125 0.0078125 0  0.4609375 0.0078125 0  0.46875 0.0078125 0  0.4765625 0.0078125 0  0.484375 0.0078125 0  0.4921875 0.0078125 0  0.5 0.0078125 0  0.5078125 0.0078125 0  0.515625 0.0078125 0  0.5234375 0.0078125 0  0.53125 0.0078125 0  0.5390625 0.0078125 0  0.546875 0.0078125 0  0.5546875 0.0078125 0  0.5625 0.0078125 0  0.5703125 0.0078125 0  0.578125 0.0078125 0  0.5859375 0.0078125 0  0.59375 0.0078125 0  0.6015625 0.0078125 0  0.609375 0.0078125 0  0.6171875 0.0078125 0  0.625 0.0078125 0  0.6328125 0.0078125 0  0.640625 0.0078125 0  0.6484375 0.0078125 0  0.65625 0.0078125 0  0.6640625 0.0078125 0  0.671875 0.0078125 0  0.6796875 0.0078125 0  0.6875 0.0078125 0  0.6953125 0.0078125 0  0.703125 0.0078125 0  0.7109375 0.0078125 0  0.71875 0.0078125 0  0.7265625 0.0078125 0  0.734375 0.0078125 0  0.7421875 0.0078125 0  0.75 0.0078125 0  0.7578125 0.0078125 0  0.765625 0.0078125 0  0.7734375 0.0078125 0  0.78125 0.0078125 0  0.7890625 0.0078125 0  0.796875 0.0078125 0  0.8046875 0.0078125 0  0.8125 0.0078125 0  0.8203125 0.0078125 0  0.828125 0.0078125 0  0.8359375 0.0078125 0  0.84375 0.0078125 0  0.8515625 0.0078125 0  0.859375 0.0078125 0  0.8671875 0.0078125 0  0.875 0.0078125 0  0.8828125 0.0078125 0  0.890625 0.0078125 0  0.8984375 0.0078125 0  0.90625 0.0078125 0  0.9140625 0.0078125 0  0.921875 0.0078125 0  0.9296875 0.0078125 0  0.9375 0.0078125 0  0.9453125 0.0078125 0  0.953125 0.0078125 0  0.9609375 0.0078125 0  0.96875 0.0078125 0  0.9765625 0.0078125 0  0.984375 0.0078125 0  0.9921875 0.0078125 0  1 0.0078125 0  0 0.015625 0  0.0078125 0.015625 0  0.015625 0.015625 0  0.0234375 0.015625 0  0.03125 0.015625 0  0.0390625 0.015625 0  0.046875 0.015625 0  0.0546875 0.015625 0  0.0625 0.015625 0  0.0703125 0.015625 0  0.078125 0.015625 0  0.0859375 0.015625 0  0.09375 0.015625 0  0.1015625 0.015625 0  0.109375 0.015625 0  0.1171875 0.015625 0  0.125 0.015625 0  0.1328125 0.015625 0  0.140625 0.015625 0  0.1484375 0.015625 0  0.15625 0.015625 0  0.1640625 0.015625 0  0.171875 0.015625 0  0.1796875 0.015625 0  0.1875 0.015625 0  0.1953125 0.015625 0  0.203125 0.015625 0  0.2109375 0.015625 0  0.21875 0.015625 0  0.2265625 0.015625 0  0.234375 0.015625 0  0.2421875 0.015625 0  0.25 0.015625 0  0.2578125 0.015625 0  0.265625 0.015625 0  0.2734375 0.015625 0  0.28125 0.015625 0  0.2890625 0.015625 0  0.296875 0.015625 0  0.3046875 0.015625 0  0.3125 0.015625 0  0.3203125 0.015625 0  0.328125 0.015625 0  0.3359375 0.015625 0  0.34375 0.015625 0  0.3515625 0.015625 0  0.359375 0.015625 0  0.3671875 0.015625 0  0.375 0.015625 0  0.3828125 0.015625 0  0.390625 0.015625 0  0.3984375 0.015625 0  0.40625 0.015625 0  0.4140625 0.015625 0  0.421875 0.015625 0  0.4296875 0.015625 0  0.4375 0.015625 0  0.4453125 0.015625 0  0.453125 0.015625 0  0.4609375 0.015625 0  0.46875 0.015625 0  0.4765625 0.015625 0  0.484375 0.015625 0  0.4921875 0.015625 0  0.5 0.015625 0  0.5078125 0.015625 0  0.515625 0.015625 0  0.5234375 0.015625 0  0.53125 0.015625 0  0.5390625 0.015625 0  0.546875 0.015625 0  0.5546875 0.015625 0  0.5625 0.015625 0  0.5703125 0.015625 0  0.578125 0.015625 0  0.5859375 0.015625 0  0.59375 0.015625 0  0.6015625 0.015625 0  0.609375 0.015625 0  0.6171875 0.015625 0  0.625 0.015625 0  0.6328125 0.015625 0  0.640625 0.015625 0  0.6484375 0.015625 0  0.65625 0.015625 0  0.6640625 0.015625 0  0.671875 0.015625 0  0.6796875 0.015625 0  0.6875 0.015625 0  0.6953125 0.015625 0  0.703125 0.015625 0  0.7109375 0.015625 0  0.71875 0.015625 0  0.7265625 0.015625 0  0.734375 0.015625 0  0.7421875 0.015625 0  0.75 0.015625 0  0.7578125 0.015625 0  0.765625 0.015625 0  0.7734375 0.015625 0  0.78125 0.015625 0  0.7890625 0.015625 0  0.796875 0.015625 0  0.8046875 0.015625 0  0.8125 0.015625 0  0.8203125 0.015625 0  0.828125 0.015625 0  0.8359375 0.015625 0  0.84375 0.015625 0  0.8515625 0.015625 0  0.859375 0.015625 0  0.8671875 0.015625 0  0.875 0.015625 0  0.8828125 0.015625 0  0.890625 0.015625 0  0.8984375 0.015625 0  0.90625 0.015625 0  0.9140625 0.015625 0  0.921875 0.015625 0  0.9296875 0.015625 0  0.9375 0.015625 0  0.9453125 0.015625 0  0.953125 0.015625 0  0.9609375 0.015625 0  0.96875 0.015625 0  0.9765625 0.015625 0  0.984375 0.015625 0  0.9921875 0.015625 0  1 0.015625 0  0 0.0234375 0  0.0078125 0.0234375 0  0.015625 0.0234375 0  0.0234375 0.0234375 0  0.03125 0.0234375 0  0.0390625 0.0234375 0  0.046875 0.0234375 0  0.0546875 0.0234375 0  0.0625 0.0234375 0  0.0703125 0.0234375 0  0.078125 0.0234375 0  0.0859375 0.0234375 0  0.09375 0.0234375 0  0.1015625 0.0234375 0  0.109375 0.0234375 0  0.1171875 0.0234375 0  0.125 0.0234375 0  0.1328125 0.0234375 0  0.140625 0.0234375 0  0.1484375 0.0234375 0  0.15625 0.0234375 0  0.1640625 0.0234375 0  0.171875 0.0234375 0  0.1796875 0.0234375 0  0.1875 0.0234375 0  0.1953125 0.0234375 0  0.203125 0.0234375 0  0.2109375 0.0234375 0  0.21875 0.0234375 0  0.2265625 0.0234375 0  0.234375 0.0234375 0  0.2421875 0.0234375 0  0.25 0.0234375 0  0.2578125 0.0234375 0  0.265625 0.0234375 0  0.2734375 0.0234375 0  0.28125 0.0234375 0  0.2890625 0.0234375 0  0.296875 0.0234375 0  0.3046875 0.0234375 0  0.3125 0.0234375 0  0.3203125 0.0234375 0  0.328125 0.0234375 0  0.3359375 0.0234375 0  0.34375 0.0234375 0  0.3515625 0.0234375 0  0.359375 0.0234375 0  0.3671875 0.0234375 0  0.375 0.0234375 0  0.3828125 0.0234375 0  0.390625 0.0234375 0  0.3984375 0.0234375 0  0.40625 0.0234375 0  0.4140625 0.0234375 0  0.421875 0.0234375 0  0.4296875 0.0234375 0  0.4375 0.0234375 0  0.4453125 0.0234375 0  0.453125 0.0234375 0  0.4609375 0.0234375 0  0.46875 0.0234375 0  0.4765625 0.0234375 0  0.484375 0.0234375 0  0.4921875 0.0234375 0  0.5 0.0234375 0  0.5078125 0.0234375 0  0.515625 0.0234375 0  0.5234375 0.0234375 0  0.53125 0.0234375 0  0.5390625 0.0234375 0  0.546875 0.0234375 0  0.5546875 0.0234375 0  0.5625 0.0234375 0  0.5703125 0.0234375 0  0.578125 0.0234375 0  0.5859375 0.0234375 0  0.59375 0.0234375 0  0.6015625 0.0234375 0  0.609375 0.0234375 0  0.6171875 0.0234375 0  0.625 0.0234375 0  0.6328125 0.0234375 0  0.640625 0.0234375 0  0.6484375 0.0234375 0  0.65625 0.0234375 0  0.6640625 0.0234375 0  0.671875 0.0234375 0  0.6796875 0.0234375 0  0.6875 0.0234375 0  0.6953125 0.0234375 0  0.703125 0.0234375 0  0.7109375 0.0234375 0  0.71875 0.0234375 0  0.7265625 0.0234375 0  0.734375 0.0234375 0  0.7421875 0.0234375 0  0.75 0.0234375 0  0.7578125 0.0234375 0  0.765625 0.0234375 0  0.7734375 0.0234375 0  0.78125 0.0234375 0  0.7890625 0.0234375 0  0.796875 0.0234375 0  0.8046875 0.0234375 0  0.8125 0.0234375 0  0.8203125 0.0234375 0  0.828125 0.0234375 0  0.8359375 0.0234375 0  0.84375 0.0234375 0  0.8515625 0.0234375 0  0.859375 0.0234375 0  0.8671
[...]
<PointData  Vectors="f_97099-0"> 
<DataArray  type="Float64"  Name="f_97099-0"  NumberOfComponents="3" format="ascii">0.0000000000000000e+00 0.0000000000000000e+00 0.0000000000000000e+00  0.0000000000000000e+00 9.6372931349212194e-05 0.0000000000000000e+00  0.0000000000000000e+00 1.9268781124819561e-04 0.0000000000000000e+00  0.0000000000000000e+00 2.8888662321474448e-04 0.0000000000000000e+00  0.0000000000000000e+00 3.8491142068163540e-04 0.0000000000000000e+00  0.0000000000000000e+00 4.8070436190147275e-04 0.0000000000000000e+00  0.0000000000000000e+00 5.7620774478839461e-04 0.0000000000000000e+00  0.0000000000000000e+00 6.7136404167565103e-04 0.0000000000000000e+00  0.0000000000000000e+00 7.6611593396812055e-04 0.0000000000000000e+00  0.0000000000000000e+00 8.6040634666888780e-04 0.0000000000000000e+00  0.0000000000000000e+00 9.5417848275908702e-04 0.0000000000000000e+00  0.0000000000000000e+00 1.0473758574103037e-03 0.0000000000000000e+00  0.0000000000000000e+00 1.1399423320089224e-03 0.0000000000000000e+00  0.0000000000000000e+00 1.2318221479719286e-03 0.0000000000000000e+00  0.0000000000000000e+00 1.3229599603337926e-03 0.0000000000000000e+00  0.0000000000000000e+00 1.4133008710842110e-03 0.0000000000000000e+00  0.0000000000000000e+00 1.5027904622366120e-03 0.0000000000000000e+00  0.0000000000000000e+00 1.5913748286075162e-03 0.0000000000000000e+00  0.0000000000000000e+00 1.6790006102870047e-03 0.0000000000000000e+00  0.0000000000000000e+00 1.7656150247807329e-03 0.0000000000000000e+00  0.0000000000000000e+00 1.8511658988041317e-03 0.0000000000000000e+00  0.0000000000000000e+00 1.9356016997096419e-03 0.0000000000000000e+00  0.0000000000000000e+00 2.0188715665280564e-03 0.0000000000000000e+00  0.0000000000000000e+00 2.1009253406052645e-03 0.0000000000000000e+00  0.0000000000000000e+00 2.1817135958159509e-03 0.0000000000000000e+00  0.0000000000000000e+00 2.2611876683360436e-03 0.0000000000000000e+00  0.0000000000000000e+00 2.3392996859559830e-03 0.0000000000000000e+00  0.0000000000000000e+00 2.4160025969171516e-03 0.0000000000000000e+00  0.0000000000000000e+00 2.4912501982540941e-03 0.0000000000000000e+00  0.0000000000000000e+00 2.5649971636254529e-03 0.0000000000000000e+00  0.0000000000000000e+00 2.6371990706168650e-03 0.0000000000000000e+00  0.0000000000000000e+00 2.7078124274993627e-03 0.0000000000000000e+00  0.0000000000000000e+00 2.7767946994271629e-03 0.0000000000000000e+00  0.0000000000000000e+00 2.8441043340590700e-03 0.0000000000000000e+00  0.0000000000000000e+00 2.9097007865880506e-03 0.0000000000000000e+00  0.0000000000000000e+00 2.9735445441639104e-03 0.0000000000000000e+00  0.0000000000000000e+00 3.0355971496943590e-03 0.0000000000000000e+00  0.0000000000000000e+00 3.0958212250101194e-03 0.0000000000000000e+00  0.0000000000000000e+00 3.1541804933801453e-03 0.0000000000000000e+00  0.0000000000000000e+00 3.2106398013633649e-03 0.0000000000000000e+00  0.0000000000000000e+00 3.2651651399837976e-03 0.0000000000000000e+00  0.0000000000000000e+00 3.3177236652162929e-03 0.0000000000000000e+00  0.0000000000000000e+00 3.3682837177705402e-03 0.0000000000000000e+00  0.0000000000000000e+00 3.4168148421614424e-03 0.0000000000000000e+00  0.0000000000000000e+00 3.4632878050543632e-03 0.0000000000000000e+00  0.0000000000000000e+00 3.5076746128741916e-03 0.0000000000000000e+00  0.0000000000000000e+00 3.5499485286676260e-03 0.0000000000000000e+00  0.0000000000000000e+00 3.5900840882085168e-03 0.0000000000000000e+00  0.0000000000000000e+00 3.6280571153365616e-03 0.0000000000000000e+00  0.0000000000000000e+00 3.6638447365201199e-03 0.0000000000000000e+00  0.0000000000000000e+00 3.6974253946343784e-03 0.0000000000000000e+00  0.0000000000000000e+00 3.7287788619465496e-03 0.0000000000000000e+00  0.0000000000000000e+00 3.7578862523003063e-03 0.0000000000000000e+00  0.0000000000000000e+00 3.7847300324920941e-03 0.0000000000000000e+00  0.0000000000000000e+00 3.8092940328324811e-03 0.0000000000000000e+00  0.0000000000000000e+00 3.8315634568861679e-03 0.0000000000000000e+00  0.0000000000000000e+00 3.8515248903848113e-03 0.0000000000000000e+00  0.0000000000000000e+00 3.8691663093072797e-03 0.0000000000000000e+00  0.0000000000000000e+00 3.8844770871224680e-03 0.0000000000000000e+00  0.0000000000000000e+00 3.8974480011903269e-03 0.0000000000000000e+00  0.0000000000000000e+00 3.9080712383172365e-03 0.0000000000000000e+00  0.0000000000000000e+00 3.9163403994623806e-03 0.0000000000000000e+00  0.0000000000000000e+00 3.9222505035922881e-03 0.0000000000000000e+00  0.0000000000000000e+00 3.9257979906812245e-03 0.0000000000000000e+00  0.0000000000000000e+00 3.9269807238556161e-03 0.0000000000000000e+00  -0.0000000000000000e+00 3.9257979906812245e-03 0.0000000000000000e+00  -0.0000000000000000e+00 3.9222505035922881e-03 0.0000000000000000e+00  -0.0000000000000000e+00 3.9163403994623806e-03 0.0000000000000000e+00  -0.0000000000000000e+00 3.9080712383172374e-03 0.0000000000000000e+00  -0.0000000000000000e+00 3.8974480011903269e-03 0.0000000000000000e+00  -0.0000000000000000e+00 3.8844770871224680e-03 0.0000000000000000e+00  -0.0000000000000000e+00 3.8691663093072797e-03 0.0000000000000000e+00  -0.0000000000000000e+00 3.8515248903848113e-03 0.0000000000000000e+00  -0.0000000000000000e+00 3.8315634568861679e-03 0.0000000000000000e+00  -0.0000000000000000e+00 3.8092940328324811e-03 0.0000000000000000e+00  -0.0000000000000000e+00 3.7847300324920941e-03 0.0000000000000000e+00  -0.0000000000000000e+00 3.7578862523003063e-03 0.0000000000000000e+00  -0.0000000000000000e+00 3.7287788619465496e-03 0.0000000000000000e+00  -0.0000000000000000e+00 3.6974253946343784e-03 0.0000000000000000e+00  -0.0000000000000000e+00 3.6638447365201199e-03 0.0000000000000000e+00  -0.0000000000000000e+00 3.6280571153365616e-03 0.0000000000000000e+00  -0.0000000000000000e+00 3.5900840882085168e-03 0.0000000000000000e+00  -0.0000000000000000e+00 3.5499485286676269e-03 0.0000000000000000e+00  -0.0000000000000000e+00 3.5076746128741916e-03 0.0000000000000000e+00  -0.0000000000000000e+00 3.4632878050543637e-03 0.0000000000000000e+00  -0.0000000000000000e+00 3.4168148421614428e-03 0.0000000000000000e+00  -0.0000000000000000e+00 3.3682837177705402e-03 0.0000000000000000e+00  -0.0000000000000000e+00 3.3177236652162934e-03 0.0000000000000000e+00  -0.0000000000000000e+00 3.2651651399837984e-03 0.0000000000000000e+00  -0.0000000000000000e+00 3.2106398013633649e-03 0.0000000000000000e+00  -0.0000000000000000e+00 3.1541804933801457e-03 0.0000000000000000e+00  -0.0000000000000000e+00 3.0958212250101198e-03 0.0000000000000000e+00  -0.0000000000000000e+00 3.0355971496943590e-03 0.0000000000000000e+00  -0.0000000000000000e+00 2.9735445441639113e-03 0.0000000000000000e+00  -0.0000000000000000e+00 2.9097007865880502e-03 0.0000000000000000e+00  -0.0000000000000000e+00 2.8441043340590700e-03 0.0000000000000000e+00  -0.0000000000000000e+00 2.7767946994271633e-03 0.0000000000000000e+00  -0.0000000000000000e+00 2.7078124274993636e-03 0.0000000000000000e+00  -0.0000000000000000e+00 2.6371990706168659e-03 0.0000000000000000e+00  -0.0000000000000000e+00 2.5649971636254524e-03 0.0000000000000000e+00  -0.0000000000000000e+00 2.4912501982540941e-03 0.0000000000000000e+00  -0.0000000000000000e+00 2.4160025969171524e-03 0.0000000000000000e+00  -0.0000000000000000e+00 2.3392996859559834e-03 0.0000000000000000e+00  -0.0000000000000000e+00 2.2611876683360441e-03 0.0000000000000000e+00  -0.0000000000000000e+00 2.1817135958159509e-03 0.0000000000000000e+00  -0.0000000000000000e+00 2.1009253406052645e-03 0.0000000000000000e+00  -0.0000000000000000e+00 2.0188715665280569e-03 0.0000000000000000e+00  -0.0000000000000000e+00 1.9356016997096423e-03 0.0000000000000000e+00  -0.0000000000000000e+00 1.8511658988041326e-03 0.0000000000000000e+00  -0.0000000000000000e+00 1.7656150247807342e-03 0.0000000000000000e+00  -0.0000000000000000e+00 1.6790006102870045e-03 0.0000000000000000e+00  -0.0000000000000000e+00 1.5913748286075164e-03 0.0000000000000000e+00  -0.0000000000000000e+00 1.5027904622366122e-03 0.0000000000000000e+00  -0.0000000000000000e+00 1.4133008710842119e-03 0.0000000000000000e+00  -0.0000000000000000e+00 1.3229599603337937e-03 0.0000000000000000e+00  -0.0000000000000000e+00 1.2318221479719279e-03 0.0000000000000000e+00  -0.0000000000000000e+00 1.1399423320089226e-03 0.0000000000000000e+00  -0.0000000000000000e+00 1.0473758574103041e-03 0.0000000000000000e+00  -0.0000000000000000e+00 9.5417848275908778e-04 0.0000000000000000e+00  -0.0000000000000000e+00 8.6040634666888877e-04 0.0000000000000000e+00  -0.0000000000000000e+00 7.6611593396812196e-04 0.0000000000000000e+00  -0.0000000000000000e+00 6.7136404167565103e-04 0.0000000000000000e+00  -0.0000000000000000e+00 5.7620774478839472e-04 0.0000000000000000e+00  -0.0000000000000000e+00 4.8070436190147335e-04 0.0000000000000000e+00  -0.0000000000000000e+00 3.8491142068163627e-04 0.0000000000000000e+00  -0.0000000000000000e+00 2.8888662321474568e-04 0.0000000000000000e+00  -0.0000000000000000e+00 1.9268781124819542e-04 0.0000000000000000e+00  -0.0000000000000000e+00 9.6372931349212343e-05 0.0000000000000000e+00  -0.0000000000000000e+00 4.8091643737831363e-19 0.0000000000000000e+00  9.6372931349212194e-05 0.0000000000000000e+00 0.0000000000000000e+00  9.6046666907109623e-05 9.6046666907109881e-05 0.0000000000000000e+00  9.5780222858368418e-05 1.9218987585085414e-04 0.0000000000000000e+00  9.5514527360811033e-05 2.8826589901889389e-04 0.0000000000000000e+00  9.5219858326360559e-05 3.8418937090663581e-04 0.0000000000000000e+00  9.4885135539233967e-05 4.7989317039759806e-04 0.0000000000000000e+00  9.4505132841333247e-05 5.7531541877745473e-04 0.0000000000000000e+00  9.4077042950757155e-05 6.7039634604587064e-04 0.0000000000000000e+00  9.3599254101170168e-05 7.6507727902100765e-04 0.0000000000000000e+00  9.3070819519838589e-05 8.5930025786316974e-04 0.0000000000000000e+00  9.2491197348556380e-05 9.5300787538086271e-04 0.0000000000000000e+00  9.1860111262513124e-05 1.0461432091742806e-03 0.0000000000000000e+00  9.1177470319812851e-05 1.1386497975883179e-03 0.0000000000000000e+00  9.0443320161436250e-05 1.2304716383056422e-03 0.0000000000000000e+00  8.9657811866305899e-05 1.3215531994560006e-03 0.0000000000000000e+00  8.8821181272213327e-05 1.4118394380021502e-03 0.0000000000000000e+00  8.7933734772517380e-05 1.5012758225124657e-03 0.0000000000000000e+00  8.6995839267267313e-05 1.5898083586393561e-03 0.0000000000000000e+00  8.6007914862778950e-05 1.6773836162802848e-03 0.0000000000000000e+00  8.4970429438041003e-05 1.7639487577729759e-03 0.0000000000000000e+00  8.3883894508119143e-05 1.8494515666987251e-03 0.0000000000000000e+00  8.2748862006351798e-05 1.9338404770041706e-03 0.0000000000000000e+00  8.1565921728372903e-05 2.0170646022383836e-03 0.0000000000000000e+00  8.0335699259649935e-05 2.0990737647582493e-03 0.0000000000000000e+00  7.9058854260541199e-05 2.1798185247926555e-03 0.0000000000000000e+00  7.7736079018264319e-05 2.2592502092814988e-03 0.0000000000000000e+00  7.6368097199734980e-05 2.3373209404233585e-03 0.0000000000000000e+00  7.4955662756374646e-05 2.4139836638781740e-03 0.0000000000000000e+00  7.3499558944355314e-05 2.4891921765805526e-03 0.0000000000000000e+00  7.2000597432570770e-05 2.5629011541258720e-03 0.0000000000000000e+00  7.0459617477240276e-05 2.6350661776965148e-03 0.0000000000000000e+00  6.8877485146813088e-05 2.7056437604992475e-03 0.0000000000000000e+00  6.7255092584570360e-05 2.7745913736879273e-03 0.0000000000000000e+00  6.5593357299012676e-05 2.8418674717478726e-03 0.0000000000000000e+00  6.3893221474278580e-05 2.9074315173202724e-03 0.0000000000000000e+00  6.2155651294508671e-05 2.9712440054465252e-03 0.0000000000000000e+00  6.0381636277249601e-05 3.0332664872136771e-03 0.0000000000000000e+00  5.8572188612089781e-05 3.0934615927833199e-03 0.0000000000000000e+00  5.6728342501480434e-05 3.1517930537871279e-03 0.0000000000000000e+00  5.4851153501330184e-05 3.2082257250733649e-03 0.0000000000000000e+00  5.2941697859463258e-05 3.2627256057890979e-03 0.0000000000000000e+00  5.1001071850445259e-05 3.3152598597839043e-03 0.0000000000000000e+00  4.9030391105627915e-05 3.3657968353213519e-03 0.0000000000000000e+00  4.7030789937524405e-05 3.4143060840851431e-03 0.0000000000000000e+00  4.5003420657857840e-05 3.4607583794676018e-03 0.0000000000000000e+00  4.2949452888796389e-05 3.5051257341284750e-03 0.0000000000000000e+00  4.0870072867063173e-05 3.5473814168128777e-03 0.0000000000000000e+00  3.8766482740713751e-05 3.5874999684175298e-03 0.0000000000000000e+00  3.6639899858512404e-05 3.6254572172950985e-03 0.0000000000000000e+00  3.4491556051883885e-05 3.6612302937869879e-03 0.0000000000000000e+00  3.2322696909544308e-05 3.6947976439753623e-03 0.0000000000000000e+00  3.0134581044917926e-05 3.7261390426457557e-03 0.0000000000000000e+00  2.7928479356575800e-05 3.7552356054523046e-03 0.0000000000000000e+00  2.5705674281892994e-05 3.7820698002777658e-03 0.0000000000000000e+00  2.3467459044246538e-05 3.8066254577814886e-03 0.0000000000000000e+00  2.1215136894020387e-05 3.8288877811286054e-03 0.0000000000000000e+00  1.8950020343798589e-05 3.8488433548945350e-03 0.0000000000000000e+00  1.6673430398086401e-05 3.8664801531391726e-03 0.0000000000000000e+00  1.4386695777949599e-05 3.8817875466459497e-03 0.0000000000000000e+00  1.2091152140975914e-05 3.8947563093210450e-03 0.0000000000000000e+00  9.7881412969683732e-06 3.9053786237490461e-03 0.0000000000000000e+00  7.4790104198016528e-06 3.9136480859014644e-03 0.0000000000000000e+00  5.1651112558750051e-06 3.9195597089953177e-03 0.0000000000000000e+00  2.8477993296106613e-06 3.9231099264993618e-03 0.0000000000000000e+00  5.2843314644085572e-07 3.9242965942860794e-03 0.0000000000000000e+00  -1.7916266062651557e-06 3.9231189919282259e-03 0.0000000000000000e+00  -4.1110178598433676e-06 3.9195778231390114e-03 0.0000000000000000e+00  -6.4283779661708491e-06 3.9136752153557082e-03 0.0000000000000000e+00  -8.7423445001260870e-06 3.9054147184670023e-03 0.0000000000000000e+00  -1.1051556062308254e-05 3.8948013026847560e-03 0.0000000000000000e+00  -1.3354653081544620e-05 3.8818413555615871e-03 0.0000000000000000e+00  -1.5650278616682962e-05 3.8665426781560870e-03 0.0000000000000000e+00  -1.7937079157317441e-05 3.8489144803480002e-03 0.0000000000000000e+00  -2.0213705422929706e-05 3.8289673753063021e-03 0.0000000000000000e+00  -2.2478813160105603e-05 3.8067133731135975e-03 0.0000000000000000e+00  -2.4731063937315014e-05 3.7821658735507696e-03 0.0000000000000000e+00  -2.6969125936964767e-05 3.7553396580462368e-03 0.0000000000000000e+00  -2.9191674744264750e-05 3.7262508807950007e-03 0.0000000000000000e+00  -3.1397394132573716e-05 3.6949170590528280e-03 0.0000000000000000e+00  -3.3584976844897413e-05 3.6613570626116173e-03 0.0000000000000000e+00  -3.5753125371192873e-05 3.6255911024625554e-03 0.0000000000000000e+00  -3.7900552721217597e-05 3.5876407186540369e-03 0.0000000000000000e+00  -4.0025983192691687e-05 3.5475287673519627e-03 0.0000000000000000e+00  -4.2128153134495109e-05 3.5052794071105970e-03 0.0000000000000000e+00  -4.4205811704835827e-05 3.4609180843623672e-03 0.0000000000000000e+00  -4.6257721624217156e-05 3.4144715181360068e-03 0.0000000000000000e+00  -4.8282659923187395e-05 3.3659676840125516e-03 0.0000000000000000e+00  -5.0279418684921698e-05 3.3154357973293920e-03 0.0000000000000000e+00  -5.2246805782758240e-05 3.2629062956431648e-03 0.0000000000000000e+00  -5.4183645612951398e-05 3.2084108204626818e-03 0.0000000000000000e+00  -5.6088779823001132e-05 3.1519821982638114e-03 0.0000000000000000e+00  -5.7961068036142065e-05 3.0936544207985305e-03 0.0000000000000000e+00  -5.9799388572665250e-05 3.0334626247114347e-03 0.0000000000000000e+00  -6.1602639169117777e-05 2.9714430704769657e-03 0.0000000000000000e+00  -6.3369737696600172e-05 2.9076331206718893e-03 0.0000000000000000e+00  -6.5099622879801565e-05 2.8420712175978289e-03 0.0000000000000000e+00  -6.6791255018851161e-05 2.7747968602696038e-03 0.0000000000000000e+00  -6.8443616716594251e-05 2.7058505807859472e-03 0.0000000000000000e+00  -7.0055713614622898e-05 2.6352739201000747e-03 0.0000000000000000e+00  -7.1626575142275394e-05 2.5631094032085764e-03 0.0000000000000000e+00  -7.3155255283888836e-05 2.4894005137785936e-03 0.0000000000000000e+00  -7.4640833371120895e-05 2.4141916682343372e-03 0.0000000000000000e+00  -7.6082414908945520e-05 2.3375281893261712e-03 0.0000000000000000e+00  -7.7479132446402744e-05 2.2594562792073785e-03 0.0000000000000000e+00  -7.8830146506408909e-05 2.1800229920467084e-03 0.0000000000000000e+00  -8.0134646593238047e-05 2.0992762062082108e-03 0.0000000000000000e+00  -8.1391852302047549e-05 2.0172645960345819e-03 0.0000000000000000e+00  -8.2601014562801259e-05 1.9340376032763520e-03 0.0000000000000000e+00  -8.3761417061807900e-05 1.8496454082176082e-03 0.0000000000000000e+00  -8.4872377899508517e-05 1.7641389005604103e-03 0.0000000000000000e+00  -8.5933251564954163e-05 1.6775696501461924e-03 0.0000000000000000e+00  -8.6943431339062257e-05 1.5899898776155518e-03 0.0000000000000000e+00  -8.7902352285471329e-05 1.5014524251415573e-03 0.0000000000000000e+00  -8.8809495058092850e-05 1.4120107274221978e-03 0.0000000000000000e+00  -8.9664390862861609e-05 1.3217187831949051e-03 0.0000000000000000e+00  -9.0466628082583024e-05 1.2306311276576479e-03 0.0000000000000000e+00  -9.1215861352675587e-05 1.1388028063784856e-03 0.0000000000000000e+00  -9.1911824345011816e-05 1.0462893516063985e-03 0.0000000000000000e+00  -9.2554348337255967e-05 9.5314676247420192e-04 0.0000000000000000e+00  -9.3143390143213132e-05 8.5943149164023256e-04 0.0000000000000000e+00  -9.3679075861018648e-05 7.6520044295378808e-04 0.0000000000000000e+00  -9.4161772785749450e-05 6.7051098893587333e-04 0.0000000000000000e+00  -9.4592214762588645e-05 5.7542102631812325e-04 0.0000000000000000e+00  -9.4971737052024295e-05 4.7998911157546767e-04 0.0000000000000000e+00  -9.5302756965822818e-05 3.8427478671616881e-04 0.0000000000000000e+00  -9.5589866782910728e-05 2.8833943882195396e-04 0.0000000000000000e+00  -9.5842657567048211e-05 1.9224899412113796e-04 0.0000000000000000e+00  -9.6084181491109153e-05 9.6084601305732145e-05 0.0000000000000000e+00  -9.6372931349212194e-05 4.8077159433868719e-19 0.0000000000000000e+00  1.9268781124819563e-04 0.0000000000000000e+00 0.0000000000000000e+00  1.9218987585085349e-04 9.5780222858369001e-05 0.0000000000000000e+00  1.9168122134167247e-04 1.9168122134167404e-04 0.0000000000000000e+00  1.9113806664335092e-04 2.8755768015793423e-04 0.0000000000000000e+00  1.9053385083485651e-04 3.8330878881624622e-04 0.0000000000000000e+00  1.8985131388249047e-04 4.7885696320242987e-04 0.0000000000000000e+00  1.8908040525714834e-04 5.7413460146851748e-04 0.0000000000000000e+00  1.8821519639897406e-04 6.6907871424340968e-04 0.0000000000000000e+00  1.8725208815929240e-04 7.6362870237658216e-04 0.0000000000000000e+00  1.8618887160022114e-04 8.5772538401339903e-04 0.0000000000000000e+00  1.8502421807008380e-04 9.5131053864887770e-04 0.0000000000000000e+00  1.8375738803044816e-04 1.0443266824469951e-03 0.0000000000000000e+00  1.8238805669030145e-04 1.1367169556324094e-03 0.0000000000000000e+00  1.8091620503397527e-04 1.2284250682391817e-03 0.0000000000000000e+00  1.7934204909223541e-04 1.3193952781511780e-03 0.0000000000000000e+00  1.7766599247431462e-04 1.4095723879319793e-03 0.0000000000000000e+00  1.7588859355023264e-04 1.4989017530437521e-03 0.0000000000000000e+00  1.7401054214845717e-04 1.5873292971960232e-03 0.0000000000000000e+00  1.7203264260329213e-04 1.6748015322665898e-03 0.0000000000000000e+00  1.6995580114145792e-04 1.7612655811996656e-03 0.0000000000000000e+00  1.6778101629651637e-04 1.8466692028528027e-03 0.0000000000000000e+00  1.6550937147502616e-04 1.9309608181087030e-03 0.0000000000000000e+00  1.6314202907644730e-04 2.0140895367842448e-03 0.0000000000000000e+00  1.6068022575059260e-04 2.0960051850082298e-03 0.0000000000000000e+00  1.581252684978