<?xml version="1.0"?>
<VTKFile type="UnstructuredGrid"  version="0.1"  >
<UnstructuredGrid>
<Piece  NumberOfPoints="16641" NumberOfCells="32768">
<Points>
<DataArray  type="Float64"  NumberOfComponents="3"  format="ascii">0 0 0  0.0078125 0 0  0.015625 0 0  0.0234375 0 0  0.03125 0 0  0.0390625 0 0  0.046875 0 0  0.0546875 0 0  0.0625 0 0  0.0703125 0 0  0.078125 0 0  0.0859375 0 0  0.09375 0 0  0.1015625 0 0  0.109375 0 0  0.1171875 0 0  0.125 0 0  0.1328125 0 0  0.140625 0 0  0.1484375 0 0  0.15625 0 0  0.1640625 0 0  0.171875 0 0  0.1796875 0 0  0.1875 0 0  0.1953125 0 0  0.203125 0 0  0.2109375 0 0  0.21875 0 0  0.2265625 0 0  0.234375 0 0  0.2421875 0 0  0.25 0 0  0.2578125 0 0  0.265625 0 0  0.2734375 0 0  0.28125 0 0  0.2890625 0 0  0.296875 0 0  0.3046875 0 0  0.3125 0 0  0.3203125 0 0  0.328125 0 0  0.3359375 0 0  0.34375 0 0  0.3515625 0 0  0.359375 0 0  0.3671875 0 0  0.375 0 0  0.3828125 0 0  0.390625 0 0  0.3984375 0 0  0.40625 0 0  0.4140625 0 0  0.421875 0 0  0.4296875 0 0  0.4375 0 0  0.4453125 0 0  0.453125 0 0  0.4609375 0 0  0.46875 0 0  0.4765625 0 0  0.484375 0 0  0.4921875 0 0  0.5 0 0  0.5078125 0 0  0.515625 0 0  0.5234375 0 0  0.53125 0 0  0.5390625 0 0  0.546875 0 0  0.5546875 0 0  0.5625 0 0  0.5703125 0 0  0.578125 0 0  0.5859375 0 0  0.59375 0 0  0.6015625 0 0  0.609375 0 0  0.6171875 0 0  0.625 0 0  0.6328125 0 0  0.640625 0 0  0.6484375 0 0  0.65625 0 0  0.6640625 0 0  0.671875 0 0  0.6796875 0 0  0.6875 0 0  0.6953125 0 0  0.703125 0 0  0.7109375 0 0  0.71875 0 0  0.7265625 0 0  0.734375 0 0  0.7421875 0 0  0.75 0 0  0.7578125 0 0  0.765625 0 0  0.7734375 0 0  0.78125 0 0  0.7890625 0 0  0.796875 0 0  0.8046875 0 0  0.8125 0 0  0.8203125 0 0  0.828125 0 0  0.8359375 0 0  0.84375 0 0  0.8515625 0 0  0.859375 0 0  0.8671875 0 0  0.875 0 0  0.8828125 0 0  0.890625 0 0  0.8984375 0 0  0.90625 0 0  0.9140625 0 0  0.921875 0 0  0.9296875 0 0  0.9375 0 0  0.9453125 0 0  0.953125 0 0  0.9609375 0 0  0.96875 0 0  0.9765625 0 0  0.984375 0 0  0.9921875 0 0  1 0 0  0 0.0078125 0  0.0078125 0.0078125 0  0.015625 0.0078125 0  0.0234375 0.0078125 0  0.03125 0.0078125 0  0.0390625 0.0078125 0  0.046875 0.0078125 0  0.0546875 0.0078125 0  0.0625 0.0078125 0  0.0703125 0.0078125 0  0.078125 0.0078125 0  0.0859375 0.0078125 0  0.09375 0.0078125 0  0.1015625 0.0078125 0  0.109375 0.0078125 0  0.1171875 0.0078125 0  0.125 0.0078125 0  0.1328125 0.0078125 0  0.140625 0.0078125 0  0.1484375 0.0078125 0  0.15625 0.0078125 0  0.1640625 0.0078125 0  0.171875 0.0078125 0  0.1796875 0.0078125 0  0.1875 0.0078125 0  0.1953125 0.0078125 0  0.203125 0.0078125 0  0.2109375 0.0078125 0  0.21875 0.0078125 0  0.2265625 0.0078125 0  0.234375 0.0078125 0  0.2421875 0.0078125 0  0.25 0.0078125 0  0.2578125 0.0078125 0  0.265625 0.0078125 0  0.2734375 0.0078125 0  0.28125 0.0078125 0  0.2890625 0.0078125 0  0.296875 0.0078125 0  0.3046875 0.0078125 0  0.3125 0.0078125 0  0.3203125 0.0078125 0  0.328125 0.0078125 0  0.3359375 0.0078125 0  0.34375 0.0078125 0  0.3515625 0.0078125 0  0.359375 0.0078125 0  0.3671875 0.0078125 0  0.375 0.0078125 0  0.3828125 0.0078125 0  0.390625 0.0078125 0  0.3984375 0.0078125 0  0.40625 0.0078125 0  0.4140625 0.0078125 0  0.421875 0.0078125 0  0.4296875 0.0078125 0  0.4375 0.0078125 0  0.4453125 0.0078125 0  0.453125 0.0078125 0  0.4609375 0.0078125 0  0.46875 0.0078125 0  0.4765625 0.0078125 0  0.484375 0.0078125 0  0.4921875 0.0078125 0  0.5 0.0078125 0  0.5078125 0.0078125 0  0.515625 0.0078125 0  0.5234375 0.0078125 0  0.53125 0.0078125 0  0.5390625 0.0078125 0  0.546875 0.0078125 0  0.5546875 0.0078125 0  0.5625 0.0078125 0  0.5703125 0.0078125 0  0.578125 0.0078125 0  0.5859375 0.0078125 0  0.59375 0.0078125 0  0.6015625 0.0078125 0  0.609375 0.0078125 0  0.6171875 0.0078125 0  0.625 0.0078125 0  0.6328125 0.0078125 0  0.640625 0.0078125 0  0.6484375 0.0078125 0  0.65625 0.0078125 0  0.6640625 0.0078125 0  0.671875 0.0078125 0  0.6796875 0.0078125 0  0.6875 0.0078125 0  0.6953125 0.0078125 0  0.703125 0.0078125 0  0.7109375 0.0078125 0  0.71875 0.0078125 0  0.7265625 0.0078125 0  0.734375 0.0078125 0  0.7421875 0.0078125 0  0.75 0.0078125 0  0.7578125 0.0078125 0  0.765625 0.0078125 0  0.7734375 0.0078125 0  0.78125 0.0078125 0  0.7890625 0.0078125 0  0.796875 0.0078125 0  0.8046875 0.0078125 0  0.8125 0.0078125 0  0.8203125 0.0078125 0  0.828125 0.0078125 0  0.8359375 0.0078125 0  0.84375 0.0078125 0  0.8515625 0.0078125 0  0.859375 0.0078125 0  0.8671875 0.0078125 0  0.875 0.0078125 0  0.8828125 0.0078125 0  0.890625 0.0078125 0  0.8984375 0.0078125 0  0.90625 0.0078125 0  0.9140625 0.0078125 0  0.921875 0.0078125 0  0.9296875 0.0078125 0  0.9375 0.0078125 0  0.9453125 0.0078125 0  0.953125 0.0078125 0  0.9609375 0.0078125 0  0.96875 0.0078125 0  0.9765625 0.0078125 0  0.984375 0.0078125 0  0.9921875 0.0078125 0  1 0.0078125 0  0 0.015625 0  0.0078125 0.015625 0  0.015625 0.015625 0  0.0234375 0.015625 0  0.03125 0.015625 0  0.0390625 0.015625 0  0.046875 0.015625 0  0.0546875 0.015625 0  0.0625 0.015625 0  0.0703125 0.015625 0  0.078125 0.015625 0  0.0859375 0.015625 0  0.09375 0.015625 0  0.1015625 0.015625 0  0.109375 0.015625 0  0.1171875 0.015625 0  0.125 0.015625 0  0.1328125 0.015625 0  0.140625 0.015625 0  0.1484375 0.015625 0  0.15625 0.015625 0  0.1640625 0.015625 0  0.171875 0.015625 0  0.1796875 0.015625 0  0.1875 0.015625 0  0.1953125 0.015625 0  0.203125 0.015625 0  0.2109375 0.015625 0  0.21875 0.015625 0  0.2265625 0.015625 0  0.234375 0.015625 0  0.2421875 0.015625 0  0.25 0.015625 0  0.2578125 0.015625 0  0.265625 0.015625 0  0.2734375 0.015625 0  0.28125 0.015625 0  0.2890625 0.015625 0  0.296875 0.015625 0  0.3046875 0.015625 0  0.3125 0.015625 0  0.3203125 0.015625 0  0.328125 0.015625 0  0.3359375 0.015625 0  0.34375 0.015625 0  0.3515625 0.015625 0  0.359375 0.015625 0  0.3671875 0.015625 0  0.375 0.015625 0  0.3828125 0.015625 0  0.390625 0.015625 0  0.3984375 0.015625 0  0.40625 0.015625 0  0.4140625 0.015625 0  0.421875 0.015625 0  0.4296875 0.015625 0  0.4375 0.015625 0  0.4453125 0.015625 0  0.453125 0.015625 0  0.4609375 0.015625 0  0.46875 0.015625 0  0.4765625 0.015625 0  0.484375 0.015625 0  0.4921875 0.015625 0  0.5 0.015625 0  0.5078125 0.015625 0  0.515625 0.015625 0  0.5234375 0.015625 0  0.53125 0.015625 0  0.5390625 0.015625 0  0.546875 0.015625 0  0.5546875 0.015625 0  0.5625 0.015625 0  0.5703125 0.015625 0  0.578125 0.015625 0  0.5859375 0.015625 0  0.59375 0.015625 0  0.6015625 0.015625 0  0.609375 0.015625 0  0.6171875 0.015625 0  0.625 0.015625 0  0.6328125 0.015625 0  0.640625 0.015625 0  0.6484375 0.015625 0  0.65625 0.015625 0  0.6640625 0.015625 0  0.671875 0.015625 0  0.6796875 0.015625 0  0.6875 0.015625 0  0.6953125 0.015625 0  0.703125 0.015625 0  0.7109375 0.015625 0  0.71875 0.015625 0  0.7265625 0.015625 0  0.734375 0.015625 0  0.7421875 0.015625 0  0.75 0.015625 0  0.7578125 0.015625 0  0.765625 0.015625 0  0.7734375 0.015625 0  0.78125 0.015625 0  0.7890625 0.015625 0  0.796875 0.015625 0  0.8046875 0.015625 0  0.8125 0.015625 0  0.8203125 0.015625 0  0.828125 0.015625 0  0.8359375 0.015625 0  0.84375 0.015625 0  0.8515625 0.015625 0  0.859375 0.015625 0  0.8671875 0.015625 0  0.875 0.015625 0  0.8828125 0.015625 0  0.890625 0.015625 0  0.8984375 0.015625 0  0.90625 0.015625 0  0.9140625 0.015625 0  0.921875 0.015625 0  0.9296875 0.015625 0  0.9375 0.015625 0  0.9453125 0.015625 0  0.953125 0.015625 0  0.9609375 0.015625 0  0.96875 0.015625 0  0.9765625 0.015625 0  0.984375 0.015625 0  0.9921875 0.015625 0  1 0.015625 0  0 0.0234375 0  0.0078125 0.0234375 0  0.015625 0.0234375 0  0.0234375 0.0234375 0  0.03125 0.0234375 0  0.0390625 0.0234375 0  0.046875 0.0234375 0  0.0546875 0.0234375 0  0.0625 0.0234375 0  0.0703125 0.0234375 0  0.078125 0.0234375 0  0.0859375 0.0234375 0  0.09375 0.0234375 0  0.1015625 0.0234375 0  0.109375 0.0234375 0  0.1171875 0.0234375 0  0.125 0.0234375 0  0.1328125 0.0234375 0  0.140625 0.0234375 0  0.1484375 0.0234375 0  0.15625 0.0234375 0  0.1640625 0.0234375 0  0.171875 0.0234375 0  0.1796875 0.0234375 0  0.1875 0.0234375 0  0.1953125 0.0234375 0  0.203125 0.0234375 0  0.2109375 0.0234375 0  0.21875 0.0234375 0  0.2265625 0.0234375 0  0.234375 0.0234375 0  0.2421875 0.0234375 0  0.25 0.0234375 0  0.2578125 0.0234375 0  0.265625 0.0234375 0  0.2734375 0.0234375 0  0.28125 0.0234375 0  0.2890625 0.0234375 0  0.296875 0.0234375 0  0.3046875 0.0234375 0  0.3125 0.0234375 0  0.3203125 0.0234375 0  0.328125 0.0234375 0  0.3359375 0.0234375 0  0.34375 0.0234375 0  0.3515625 0.0234375 0  0.359375 0.0234375 0  0.3671875 0.0234375 0  0.375 0.0234375 0  0.3828125 0.0234375 0  0.390625 0.0234375 0  0.3984375 0.0234375 0  0.40625 0.0234375 0  0.4140625 0.0234375 0  0.421875 0.0234375 0  0.4296875 0.0234375 0  0.4375 0.0234375 0  0.4453125 0.0234375 0  0.453125 0.0234375 0  0.4609375 0.0234375 0  0.46875 0.0234375 0  0.4765625 0.0234375 0  0.484375 0.0234375 0  0.4921875 0.0234375 0  0.5 0.0234375 0  0.5078125 0.0234375 0  0.515625 0.0234375 0  0.5234375 0.0234375 0  0.53125 0.0234375 0  0.5390625 0.0234375 0  0.546875 0.0234375 0  0.5546875 0.0234375 0  0.5625 0.0234375 0  0.5703125 0.0234375 0  0.578125 0.0234375 0  0.5859375 0.0234375 0  0.59375 0.0234375 0  0.6015625 0.0234375 0  0.609375 0.0234375 0  0.6171875 0.0234375 0  0.625 0.0234375 0  0.6328125 0.0234375 0  0.640625 0.0234375 0  0.6484375 0.0234375 0  0.65625 0.0234375 0  0.6640625 0.0234375 0  0.671875 0.0234375 0  0.6796875 0.0234375 0  0.6875 0.0234375 0  0.6953125 0.0234375 0  0.703125 0.0234375 0  0.7109375 0.0234375 0  0.71875 0.0234375 0  0.7265625 0.0234375 0  0.734375 0.0234375 0  0.7421875 0.0234375 0  0.75 0.0234375 0  0.7578125 0.0234375 0  0.765625 0.0234375 0  0.7734375 0.0234375 0  0.78125 0.0234375 0  0.7890625 0.0234375 0  0.796875 0.0234375 0  0.8046875 0.0234375 0  0.8125 0.0234375 0  0.8203125 0.0234375 0  0.828125 0.0234375 0  0.8359375 0.0234375 0  0.84375 0.0234375 0  0.8515625 0.0234375 0  0.859375 0.0234375 0  0.8671
[...]
<PointData  Scalars="f_97099-1"> 
<DataArray  type="Float64"  Name="f_97099-1"  format="ascii">-0.0000000000000000e+00  -1.9274437650860398e-04  -3.8537265101197565e-04  -5.7776879144038923e-04  -7.6981690555300583e-04  -9.6140131074702530e-04  -1.1524066037405614e-03  -1.3427177300872626e-03  -1.5322200534808087e-03  -1.7207994248075364e-03  -1.9083422509055948e-03  -2.0947355629892207e-03  -2.2798670846969093e-03  -2.4636252997224987e-03  -2.6458995189884175e-03  -2.8265799473206534e-03  -3.0055577495852561e-03  -3.1827251162465505e-03  -3.3579753283075760e-03  -3.5312028215936137e-03  -3.7023032503401025e-03  -3.8711735500466210e-03  -4.0377119995590937e-03  -4.2018182823428084e-03  -4.3633935469093452e-03  -4.5223404663610189e-03  -4.6785632970169572e-03  -4.8319679360855220e-03  -4.9824619783483083e-03  -5.1299547718215901e-03  -5.2743574723616909e-03  -5.4155830971813696e-03  -5.5535465772450021e-03  -5.6881648085109838e-03  -5.8193567019905008e-03  -5.9470432325924999e-03  -6.0711474867254566e-03  -6.1915947086272358e-03  -6.3083123453951751e-03  -6.4212300906892417e-03  -6.5302799270819346e-03  -6.6353961670294476e-03  -6.7365154924393864e-03  -6.8335769928112170e-03  -6.9265222019264808e-03  -7.0152951330666527e-03  -7.0998423127374448e-03  -7.1801128128792481e-03  -7.2560582815442828e-03  -7.3276329720220112e-03  -7.3947937703952383e-03  -7.4575002215103280e-03  -7.5157145533458749e-03  -7.5694016997651537e-03  -7.6185293216386538e-03  -7.6630678263239597e-03  -7.7029903854912499e-03  -7.7382729512836829e-03  -7.7688942708029262e-03  -7.7948358989111018e-03  -7.8160822093414645e-03  -7.8326204041110573e-03  -7.8444405212297567e-03  -7.8515354407009894e-03  -7.8539008888105638e-03  -7.8515354407009894e-03  -7.8444405212297567e-03  -7.8326204041110573e-03  -7.8160822093414663e-03  -7.7948358989111018e-03  -7.7688942708029262e-03  -7.7382729512836829e-03  -7.7029903854912499e-03  -7.6630678263239597e-03  -7.6185293216386538e-03  -7.5694016997651537e-03  -7.5157145533458749e-03  -7.4575002215103280e-03  -7.3947937703952383e-03  -7.3276329720220112e-03  -7.2560582815442828e-03  -7.1801128128792481e-03  -7.0998423127374456e-03  -7.0152951330666518e-03  -6.9265222019264817e-03  -6.8335769928112178e-03  -6.7365154924393864e-03  -6.6353961670294493e-03  -6.5302799270819363e-03  -6.4212300906892417e-03  -6.3083123453951759e-03  -6.1915947086272367e-03  -6.0711474867254575e-03  -5.9470432325925016e-03  -5.8193567019904999e-03  -5.6881648085109838e-03  -5.5535465772450030e-03  -5.4155830971813713e-03  -5.2743574723616926e-03  -5.1299547718215892e-03  -4.9824619783483083e-03  -4.8319679360855228e-03  -4.6785632970169581e-03  -4.5223404663610198e-03  -4.3633935469093452e-03  -4.2018182823428084e-03  -4.0377119995590946e-03  -3.8711735500466219e-03  -3.7023032503401042e-03  -3.5312028215936163e-03  -3.3579753283075756e-03  -3.1827251162465510e-03  -3.0055577495852570e-03  -2.8265799473206552e-03  -2.6458995189884197e-03  -2.4636252997224978e-03  -2.2798670846969097e-03  -2.0947355629892216e-03  -1.9083422509055964e-03  -1.7207994248075384e-03  -1.5322200534808115e-03  -1.3427177300872626e-03  -1.1524066037405618e-03  -9.6140131074702649e-04  -7.6981690555300757e-04  -5.7776879144039162e-04  -3.8537265101197527e-04  -1.9274437650860428e-04  -9.6182545843024085e-19  -0.0000000000000000e+00  -1.9246265525500026e-04  -3.8478028128287729e-04  -5.7684528838625399e-04  -7.6854664394094120e-04  -9.5977192349669480e-04  -1.1504081217566125e-03  -1.3403420683411908e-03  -1.5294606780805204e-03  -1.7176511230522699e-03  -1.9048009641506234e-03  -2.0907982600548158e-03  -2.2755316626911336e-03  -2.4588905041198800e-03  -2.6407648776694153e-03  -2.8210457150060915e-03  -2.9996248601881089e-03  -3.1763951413727280e-03  -3.3512504406138822e-03  -3.5240857620398598e-03  -3.6947972986044039e-03  -3.8632824975402022e-03  -4.0294401245997208e-03  -4.1931703271375631e-03  -4.3543746960668529e-03  -4.5129563267064651e-03  -4.6688198785246300e-03  -4.8218716337760457e-03  -4.9720195550236705e-03  -5.1191733415316618e-03  -5.2632444845126993e-03  -5.4041463212104223e-03  -5.5417940877959789e-03  -5.6761049710564266e-03  -5.8069981588518144e-03  -5.9343948893173393e-03  -6.0582184987865110e-03  -6.1783944684114861e-03  -6.2948504694564636e-03  -6.4075164072405454e-03  -6.5163244637065571e-03  -6.6212091385929785e-03  -6.7221072891863621e-03  -6.8189581686325445e-03  -6.9117034627851409e-03  -7.0002873255708654e-03  -7.0846564128517180e-03  -7.1647599147648894e-03  -7.2405495865220165e-03  -7.3119797776502364e-03  -7.3790074596582914e-03  -7.4415922521118508e-03  -7.4996964471030292e-03  -7.5532850321000456e-03  -7.6023257111637920e-03  -7.6467889245190957e-03  -7.6866478664693967e-03  -7.7218785016444098e-03  -7.7524595795713898e-03  -7.7783726475616766e-03  -7.7996020619048624e-03  -7.8161349973643861e-03  -7.8279614549688903e-03  -7.8350742680949534e-03  -7.8374691068377137e-03  -7.8351444806669668e-03  -7.8281017393672363e-03  -7.8163450722613815e-03  -7.7998815057183637e-03  -7.7787208989466778e-03  -7.7528759380760936e-03  -7.7223621285312750e-03  -7.6871977857018393e-03  -7.6474040239146142e-03  -7.6030047437144208e-03  -7.5540266174612368e-03  -7.5004990732521256e-03  -7.4424542771775789e-03  -7.3799271139227433e-03  -7.3129551657249766e-03  -7.2415786897002355e-03  -7.1658405935516121e-03  -7.0857864096742522e-03  -7.0014642676718974e-03  -6.9129248653011519e-03  -6.8202214378603743e-03  -6.7234097260409952e-03  -6.6225479422600386e-03  -6.5176967354930518e-03  -6.4089191546279258e-03  -6.2962806103603903e-03  -6.1798488356530666e-03  -6.0596938447801795e-03  -5.9358878909812002e-03  -5.8085054227467459e-03  -5.6776230387610201e-03  -5.5433194415250853e-03  -5.4056753896860191e-03  -5.2647736490969241e-03  -5.1206989426330844e-03  -4.9735378987894137e-03  -4.8233789990841476e-03  -4.6703125242932766e-03  -4.5144304995394027e-03  -4.3558266382575511e-03  -4.1945962850588325e-03  -4.0308363575104495e-03  -3.8646452868474051e-03  -3.6961229576268355e-03  -3.5253706463299625e-03  -3.3524909589083352e-03  -3.1775877672598346e-03  -3.0007661446039484e-03  -2.8221322997035664e-03  -2.6417935098484503e-03  -2.4598580524686064e-03  -2.2764351351757758e-03  -2.0916348239240104e-03  -1.9055679688112512e-03  -1.7183461267685593e-03  -1.5300814799172667e-03  -1.3408867475484931e-03  -1.1508750881351203e-03  -9.6015998470638428e-04  -7.6885510026370590e-04  -5.7707407406091822e-04  -3.8493018677571145e-04  -1.9253568599603290e-04  -9.6153577458464685e-19  -0.0000000000000000e+00  -1.9203694720914185e-04  -3.8391129672444196e-04  -5.7551809644773284e-04  -7.6674886153598745e-04  -9.5749334498725807e-04  -1.1476403959864404e-03  -1.3370784415289542e-03  -1.5256957937283774e-03  -1.7133808660982333e-03  -1.9000223379998476e-03  -2.0855092878020419e-03  -2.2697313062494946e-03  -2.4525785967744297e-03  -2.6339420668479220e-03  -2.8137134129455131e-03  -2.9917852007922334e-03  -3.1680509419905246e-03  -3.3424051677775554e-03  -3.5147435004254449e-03  -3.6849627226419046e-03  -3.8529608452225052e-03  -4.0186371731316308e-03  -4.1818923701366258e-03  -4.3426285220819908e-03  -4.5007491988628733e-03  -4.6561595151367865e-03  -4.8087661897974919e-03  -4.9584776042235126e-03  -5.1052038593051470e-03  -5.2488568312474273e-03  -5.3893502261414443e-03  -5.5265996332926415e-03  -5.6605225772919359e-03  -5.7910385688132787e-03  -5.9180691541196985e-03  -6.0415379632588230e-03  -6.1613707569278730e-03  -6.2774954719878508e-03  -6.3898422656063136e-03  -6.4983435580078268e-03  -6.6029340738116352e-03  -6.7035508819360129e-03  -6.8001334340491134e-03  -6.8926236015467547e-03  -6.9809657110377456e-03  -7.0651065783181545e-03  -7.1449955408164709e-03  -7.2205844884921629e-03  -7.2918278931711246e-03  -7.3586828363017805e-03  -7.4211090351170173e-03  -7.4790688671872597e-03  -7.5325273933513643e-03  -7.5814523790126223e-03  -7.6258143137879356e-03  -7.6655864294994849e-03  -7.7007447164986961e-03  -7.7312679383136568e-03  -7.7571376446114778e-03  -7.7783381824689151e-03  -7.7948567059446007e-03  -7.8066831839478231e-03  -7.8138104063995382e-03  -7.8162339886822824e-03  -7.8139523743765791e-03  -7.8069668362826744e-03  -7.7952814757270361e-03  -7.7789032201543533e-03  -7.7578418190066200e-03  -7.7321098378919009e-03  -7.7017226510462866e-03  -7.6666984320937570e-03  -7.6270581431093316e-03  -7.5828255219920933e-03  -7.5340270681554834e-03  -7.4806920265433922e-03  -7.4228523699813196e-03  -7.3605427798729911e-03  -7.2938006252535621e-03  -7.2226659402116035e-03  -7.1471813996929140e-03  -7.0673922937000673e-03  -6.9833464999023509e-03  -6.8950944546718549e-03  -6.8026891225620644e-03  -6.7061859642459920e-03  -6.6056429029320860e-03  -6.5011202892762592e-03  -6.3926808648096410e-03  -6.2803897239016278e-03  -6.1643142742793680e-03  -6.0445241961239616e-03  -5.9210913997654871e-03  -5.7940899819981474e-03  -5.6635961810381236e-03  -5.5296883301457688e-03  -5.3924468099347386e-03  -5.2519539993897846e-03  -5.1082942256148239e-03  -4.9615537123321564e-03  -4.8118205271526692e-03  -4.6591845276353766e-03  -4.5037373061528798e-03  -4.3455721335764154e-03  -4.1847839017908920e-03  -4.0214690650454852e-03  -3.8557255801393293e-03  -3.6876528454335201e-03  -3.5173516386698095e-03  -3.3449240535616759e-03  -3.1704734351034056e-03  -2.9941043135156258e-03  -2.8159223367075262e-03  -2.6360342010824196e-03  -2.4545475804361159e-03  -2.2715710525845309e-03  -2.0872140231879039e-03  -1.9015866459792413e-03  -1.7147997381947622e-03  -1.5269646893359752e-03  -1.3381933602637647e-03  -1.1485979676325194e-03  -9.5829094497680513e-04  -7.6738476448008533e-04  -5.7599168801428615e-04  -3.8422338038258318e-04  -1.9219022863458413e-04  -9.6066689754258149e-19  -0.0000000000000000e+00  -1.9147593544501071e-04  -3.8277718932750441e-04  -5.7379966291375584e-04  -7.6443636226971624e-04  -9.5457858248906131e-04  -1.1441166338536247e-03  -1.3329402986300258e-03  -1.5209391408328625e-03  -1.7080027324342046e-03  -1.8940208292436880e-03  -2.0788835148012282e-03  -2.2624813230591291e-03  -2.4447053464985145e-03  -2.6254473339244605e-03  -2.8045997807267802e-03  -2.9820560134788711e-03  -3.1577102701576530e-03  -3.3314577768786707e-03  -3.5031948217782729e-03  -3.6728188264946397e-03  -3.8402284155735745e-03  -4.0053234840353551e-03  -4.1680052632744446e-03  -4.3281763854166903e-03  -4.4857409462237194e-03  -4.6406045666081818e-03  -4.7926744528038268e-03  -4.9418594552193447e-03  -5.0880701259935377e-03  -5.2312187752605070e-03  -5.3712195261266717e-03  -5.5079883683562085e-03  -5.6414432107574552e-03  -5.7715039322594813e-03  -5.8980924316658564e-03  -6.0211326760705999e-03  -6.1405507479200330e-03  -6.2562748907032846e-03  -6.3682355532534906e-03  -6.4763654326412158e-03  -6.5805995156416443e-03  -6.6808751187568136e-03  -6.7771319267743851e-03  -6.8693120298446361e-03  -6.9573599590576699e-03  -7.0412227205034258e-03  -7.1208498277972052e-03  -7.1961933330543897e-03  -7.2672078562984257e-03  -7.3338506132867229e-03  -7.3960814417402126e-03  -7.4538628259624541e-03  -7.5071599198355543e-03  -7.5559405681806125e-03  -7.6001753264712700e-03  -7.6398374788899451e-03  -7.6749030547170393e-03  -7.7053508430444386e-03  -7.7311624058053379e-03  -7.7523220891135836e-03  -7.7688170329064344e-03  -7.7806371788857629e-03  -7.7877752767534399e-03  -7.7902268887379174e-03  -7.7879903924095864e-03  -7.7810669817838197e-03  -7.7694606667113829e-03  -7.7531782705567830e-03  -7.7322294261663411e-03  -7.7066265701284942e-03  -7.6763849353298991e-03  -7.6415225418119542e-03  -7.6020601859330683e-03  -7.5580214278432156e-03  -7.5094325772780543e-03  -7.4563226776809630e-03  -7.3987234886621379e-03  -7.3366694668049060e-03  -7.2701977448302677e-03  -7.1993481091313866e-03  -7.1241629756910070e-03  -7.0446873643951356e-03  -6.9609688717575391e-03  -6.8730576420700275e-03  -6.7810063369946284e-03  -6.6848701036140894e-03  -6.5847065409581663e-03  -6.4805756650235065e-03  -6.3725398723057181e-03  -6.2606639018626536e-03  -6.1450147959283257e-03  -6.0256618590974025e-03  -5.9026766161003521e-03  -5.7761327681894693e-03  -5.6461061481562214e-03  -5.5126746739999908e-03  -5.3759183012681106e-03  -5.2359189740865068e-03  -5.0927605748993764e-03  -4.9465288729352254e-03  -4.7973114714148397e-03  -4.6451977535147343e-03  -4.4902788270966909e-03  -4.3326474682102642e-03  -4.1723980633703124e-03  -4.0096265506053231e-03  -3.8444303592640341e-03  -3.6769083485570847e-03  -3.5071607447963431e-03  -3.3352890772757439e-03  -3.1613961127122930e-03  -2.9855857881320252e-03  -2.8079631420390898e-03  -2.6286342436417092e-03  -2.4477061198177543e-03  -2.2652866793724910e-03  -2.0814846339508551e-03  -1.8964094146830181e-03  -1.7101710832089295e-03  -1.5228802350483745e-03  -1.3346478921843236e-03  -1.1455853798849227e-03  -9.5580417956909645e-04  -7.6541574363054362e-04  -5.7453124691990236e-04  -3.8326122813405882e-04  -1.9171503867092011e-04  -9.5921935068308550e-19  -0.0000000000000000e+00  -1.9078477705938550e-04  -3.8138589210021329e-04  -5.7169957045181984e-04  -7.6161980262109757e-04  -9.5103906982965897e-04  -1.1398489013673665e-03  -1.3279402725025564e-03  -1.5152038941653588e-03  -1.7015304334573166e-03  -1.8868106896205925e-03  -2.0709357404351532e-03  -2.2537970682980236e-03  -2.4352866718997321e-03  -2.6152971674027708e-03  -2.7937218817687954e-03  -2.9704549400675780e-03  -3.1453913480593964e-03  -3.3184270709744478e-03  -3.4894591091578866e-03  -3.6583855710690216e-03  -3.8251057439947730e-03  -3.9895201627439232e-03  -4.1515306765201815e-03  -4.3110405141211557e-03  -4.4679543475720342e-03  -4.6221783542737564e-03  -4.7736202777233583e-03  -4.9221894868469234e-03  -5.0677970339727471e-03  -5.2103557114614825e-03  -5.3497801070024886e-03  -5.4859866575789071e-03  -5.6188937020993325e-03  -5.7484215326898142e-03  -5.8744924446371598e-03  -5.9970307849718778e-03  -6.1159629996774909e-03  -6.2312176795116048e-03  -6.3427256044229904e-03  -6.4504197865483054e-03  -6.5542355117716939e-03  -6.6541103798301790e-03  -6.7499843429477454e-03  -6.8417997429810742e-03  -6.9295013470599756e-03  -7.0130363817062155e-03  -7.0923545654142453e-03  -7.1674081396784261e-03  -7.2381518984514807e-03  -7.3045432160196459e-03  -7.3665420732805771e-03  -7.4241110824107863e-03  -7.4772155099101173e-03  -7.5258232980115409e-03  -7.5699050844452572e-03  -7.6094342205469774e-03  -7.6443867877011218e-03  -7.6747416121103734e-03  -7.7004802778841801e-03  -7.7215871384392785e-03  -7.7380493262067017e-03  -7.7498567606402091e-03  -7.7570021545221796e-03  -7.7594810185641488e-03  -7.7572916642995914e-03  -7.7504352052680378e-03  -7.7389155564902019e-03  -7.7227394322348462e-03  -7.7019163420791225e-03  -7.6764585852648936e-03  -7.6463812433547216e-03  -7.6117021711919371e-03  -7.5724419861702323e-03  -7.5286240558190710e-03  -7.4802744837122832e-03  -7.4274220937078691e-03  -7.3700984125281725e-03  -7.3083376506903157e-03  -7.2421766817977263e-03  -7.1716550202042054e-03  -7.0968147970632937e-03  -7.0177007347758998e-03  -6.9343601198504053e-03  -6.8468427741898230e-03  -6.7552010248217121e-03  -6.6594896720866973e-03  -6.5597659563025011e-03  -6.4560895229207006e-03  -6.3485223861940955e-03  -6.2371288913728338e-03  -6.1219756754479198e-03  -6.0031316264608893e-03  -5.8806678413987441e-03  -5.7546575826930065e-03  -5.6251762333418181e-03  -5.4923012506735954e-03  -5.3561121187701774e-03  -5.2166902995666644e-03  -5.0741191826438395e-03  -4.9284840337277700e-03  -4.7798719419087608e-03  -4.6283717655895527e-03  -4.4740740771688622e-03  -4.3170711064621937e-03  -4.1574566828559388e-03  -3.9953261761836081e-03  -3.8307764363035395e-03  -3.6639057313453084e-03  -3.4948136845761716e-03  -3.3236012098182277e-03  -3.1503704453195417e-03  -2.9752246859460580e-03  -2.7982683135119504e-03  -2.6196067249991844e-03  -2.4393462583243608e-03  -2.2575941151812291e-03  -2.0744582803021183e-03  -1.8900474362126831e-03  -1.7044708721554477e-03  -1.5178383852516252e-03  -1.3302601710253575e-03  -1.1418466988976190e-03  -9.5270856576173751e-04  -7.6295631660562731e-04  -5.7270021450004597e-04  -3.8204993340161400e-04  -1.9111414390780813e-04  -9.5719400595425975e-19  -0.0000000000000000e+00  -1.8996708477395278e-04  -3.7974348051642725e-04  -5.6922565260520851e-04  -7.5830834887190832e-04  -9.4688504168816807e-04  -1.1348483369931378e-03  -1.3220903045151489e-03  -1.5085027373787612e-03  -1.6939773593045385e-03  -1.8784059949000101e-03  -2.0616807140530669e-03  -2.2436939578589438e-03  -2.4243386510782307e-03  -2.6035083045369079e-03  -2.7810971098421395e-03  -2.9570000280967914e-03  -3.1311128738249678e-03  -3.3033323949936580e-03  -3.4735563497838369e-03  -3.6416835805975190e-03  -3.8076140856656789e-03  -3.9712490885317388e-03  -4.1324911056184119e-03  -4.2912440120348380e-03  -4.4474131057422083e-03  -4.6009051701666010e-03  -4.7516285353245702e-03  -4.8994931375092830e-03  -5.0444105775709512e-03  -5.1862941778142053e-03  -5.3250590375264239e-03  -5.4606220871441366e-03  -5.5929021410590493e-03  -5.7218199490610211e-03  -5.8472982464118309e-03  -5.9692618025409053e-03  -6.0876374683520038e-03  -6.2023542221284287e-03  -6.3133432140227864e-03  -6.4205378091168087e-03  -6.5238736290357474e-03  -6.6232885921017554e-03  -6.7187229520103290e-03  -6.8101193350138386e-03  -6.8974227755962646e-03  -6.9805807506235721e-03  -7.0595432119542308e-03  -7.1342626174950609e-03  -7.2046939606879310e-03  -7.2707947984132224e-03  -7.3325252772968794e-03  -7.3898481584081348e-03  -7.4427288403359606e-03  -7.4911353806330454e-03  -7.5350385156164219e-03  -7.5744116785152532e-03  -7.6092310159565487e-03  -7.6394754027808067e-03  -7.6651264551801622e-03  -7.6861685421525843e-03  -7.7025887952666622e-03  -7.7143771167320612e-03  -7.7215261857720456e-03  -7.7240314632950760e-03  -7.7218911948635244e-03  -7.7151064119584910e-03  -7.7036809315404967e-03  -7.6876213539068747e-03  -7.6669370588476815e-03  -7.6416402001024779e-03  -7.6117456981218802e-03  -7.5772712311380870e-03  -7.5382372245498576e-03  -7.4946668386281761e-03  -7.4465859545498753e-03  -7.3940231587670945e-03  -7.3370097257216505e-03  -7.2755795989139557e-03  -7.2097693703372595e-03  -7.1396182582883945e-03  -7.0651680835673641e-03  -6.9864632440787954e-03  -6.9035506878488539e-03  -6.8164798844720003e-03  -6.7253027950028030e-03  -6.6300738403082910e-03  -6.5308498678971916e-03  -6.4276901172428246e-03  -6.3206561836167269e-03  -6.2098119804506764e-03  -6.0952237002448546e-03  -5.9769597740401267e-03  -5.8550908294725864e-03  -5.7296896474281055e-03  -5.6008311173147409e-03  -5.4685921909700952e-03  -5.3330518352200929e-03  -5.1942909831047077e-03  -5.0523924837847104e-03  -4.9074410511417629e-03  -4.7595232110818619e-03  -4.6087272475491374e-03  -4.4551431472532226e-03  -4.2988625431085916e-03  -4.1399786563781210e-03  -3.9785862375054017e-03  -3.8147815056103701e-03  -3.6486620866101518e-03  -3.4803269499108277e-03  -3.3098763435946425e-03  -3.1374117279998645e-03  -2.9630357075542853e-03  -2.7868519606755863e-03  -2.6089651674875121e-03  -2.4294809350134472e-03  -2.2485057193890111e-03  -2.0661467444672375e-03  -1.8825119159512989e-03  -1.6977097298443346e-03  -1.5118491734962896e-03  -1.3250396167633870e-03  -1.1373906896382357e-03  -9.4901214097479092e-04  -7.6001367048993498e-04  -5.7050472343628093e-04  -3.8059423653898262e-04  -1.9039033285596460e-04  -9.5459208334803626e-19  -0.0000000000000000e+00  -1.8902566849585673e-04  -3.7785496175137548e-04  -5.6638465119590586e-04  -7.5451016609771079e-04  -9.4212587469644324e-04  -1.1291253824023304e-03  -1.3154017994670940e-03  -1.5008479676962511e-03  -1.6853566506461915e-03  -1.8688206951058735e-03  -2.0511331709524880e-03  -2.2321874948489778e-03  -2.4118775417659864e-03  -2.5900977471845009e-03  -2.7667432020331158e-03  -2.9417097418517578e-03  -3.1148940312778102e-03  -3.2861936446690766e-03  -3.4555071434743917e-03  -3.6227341508138279e-03  -3.7877754236199795e-03  -3.95