<?xml version="1.0"?>
<VTKFile type="UnstructuredGrid"  version="0.1"  >
<UnstructuredGrid>
<Piece  NumberOfPoints="16641" NumberOfCells="32768">
<Points>
<DataArray  type="Float64"  NumberOfComponents="3"  format="ascii">0 0 0  0.0078125 0 0  0.015625 0 0  0.0234375 0 0  0.03125 0 0  0.0390625 0 0  0.046875 0 0  0.0546875 0 0  0.0625 0 0  0.0703125 0 0  0.078125 0 0  0.0859375 0 0  0.09375 0 0  0.1015625 0 0  0.109375 0 0  0.1171875 0 0  0.125 0 0  0.1328125 0 0  0.140625 0 0  0.1484375 0 0  0.15625 0 0  0.1640625 0 0  0.171875 0 0  0.1796875 0 0  0.1875 0 0  0.1953125 0 0  0.203125 0 0  0.2109375 0 0  0.21875 0 0  0.2265625 0 0  0.234375 0 0  0.2421875 0 0  0.25 0 0  0.2578125 0 0  0.265625 0 0  0.2734375 0 0  0.28125 0 0  0.2890625 0 0  0.296875 0 0  0.3046875 0 0  0.3125 0 0  0.3203125 0 0  0.328125 0 0  0.3359375 0 0  0.34375 0 0  0.3515625 0 0  0.359375 0 0  0.3671875 0 0  0.375 0 0  0.3828125 0 0  0.390625 0 0  0.3984375 0 0  0.40625 0 0  0.4140625 0 0  0.421875 0 0  0.4296875 0 0  0.4375 0 0  0.4453125 0 0  0.453125 0 0  0.4609375 0 0  0.46875 0 0  0.4765625 0 0  0.484375 0 0  0.4921875 0 0  0.5 0 0  0.5078125 0 0  0.515625 0 0  0.5234375 0 0  0.53125 0 0  0.5390625 0 0  0.546875 0 0  0.5546875 0 0  0.5625 0 0  0.5703125 0 0  0.578125 0 0  0.5859375 0 0  0.59375 0 0  0.6015625 0 0  0.609375 0 0  0.6171875 0 0  0.625 0 0  0.6328125 0 0  0.640625 0 0  0.6484375 0 0  0.65625 0 0  0.6640625 0 0  0.671875 0 0  0.6796875 0 0  0.6875 0 0  0.6953125 0 0  0.703125 0 0  0.7109375 0 0  0.71875 0 0  0.7265625 0 0  0.734375 0 0  0.7421875 0 0  0.75 0 0  0.7578125 0 0  0.765625 0 0  0.7734375 0 0  0.78125 0 0  0.7890625 0 0  0.796875 0 0  0.8046875 0 0  0.8125 0 0  0.8203125 0 0  0.828125 0 0  0.8359375 0 0  0.84375 0 0  0.8515625 0 0  0.859375 0 0  0.8671875 0 0  0.875 0 0  0.8828125 0 0  0.890625 0 0  0.8984375 0 0  0.90625 0 0  0.9140625 0 0  0.921875 0 0  0.9296875 0 0  0.9375 0 0  0.9453125 0 0  0.953125 0 0  0.9609375 0 0  0.96875 0 0  0.9765625 0 0  0.984375 0 0  0.9921875 0 0  1 0 0  0 0.0078125 0  0.0078125 0.0078125 0  0.015625 0.0078125 0  0.0234375 0.0078125 0  0.03125 0.0078125 0  0.0390625 0.0078125 0  0.046875 0.0078125 0  0.0546875 0.0078125 0  0.0625 0.0078125 0  0.0703125 0.0078125 0  0.078125 0.0078125 0  0.0859375 0.0078125 0  0.09375 0.0078125 0  0.1015625 0.0078125 0  0.109375 0.0078125 0  0.1171875 0.0078125 0  0.125 0.0078125 0  0.1328125 0.0078125 0  0.140625 0.0078125 0  0.1484375 0.0078125 0  0.15625 0.0078125 0  0.1640625 0.0078125 0  0.171875 0.0078125 0  0.1796875 0.0078125 0  0.1875 0.0078125 0  0.1953125 0.0078125 0  0.203125 0.0078125 0  0.2109375 0.0078125 0  0.21875 0.0078125 0  0.2265625 0.0078125 0  0.234375 0.0078125 0  0.2421875 0.0078125 0  0.25 0.0078125 0  0.2578125 0.0078125 0  0.265625 0.0078125 0  0.2734375 0.0078125 0  0.28125 0.0078125 0  0.2890625 0.0078125 0  0.296875 0.0078125 0  0.3046875 0.0078125 0  0.3125 0.0078125 0  0.3203125 0.0078125 0  0.328125 0.0078125 0  0.3359375 0.0078125 0  0.34375 0.0078125 0  0.3515625 0.0078125 0  0.359375 0.0078125 0  0.3671875 0.0078125 0  0.375 0.0078125 0  0.3828125 0.0078125 0  0.390625 0.0078125 0  0.3984375 0.0078125 0  0.40625 0.0078125 0  0.4140625 0.0078125 0  0.421875 0.0078125 0  0.4296875 0.0078125 0  0.4375 0.0078125 0  0.4453125 0.0078125 0  0.453125 0.0078125 0  0.4609375 0.0078125 0  0.46875 0.0078125 0  0.4765625 0.0078125 0  0.484375 0.0078125 0  0.4921875 0.0078125 0  0.5 0.0078125 0  0.5078125 0.0078125 0  0.515625 0.0078125 0  0.5234375 0.0078125 0  0.53125 0.0078125 0  0.5390625 0.0078125 0  0.546875 0.0078125 0  0.5546875 0.0078125 0  0.5625 0.0078125 0  0.5703125 0.0078125 0  0.578125 0.0078125 0  0.5859375 0.0078125 0  0.59375 0.0078125 0  0.6015625 0.0078125 0  0.609375 0.0078125 0  0.6171875 0.0078125 0  0.625 0.0078125 0  0.6328125 0.0078125 0  0.640625 0.0078125 0  0.6484375 0.0078125 0  0.65625 0.0078125 0  0.6640625 0.0078125 0  0.671875 0.0078125 0  0.6796875 0.0078125 0  0.6875 0.0078125 0  0.6953125 0.0078125 0  0.703125 0.0078125 0  0.7109375 0.0078125 0  0.71875 0.0078125 0  0.7265625 0.0078125 0  0.734375 0.0078125 0  0.7421875 0.0078125 0  0.75 0.0078125 0  0.7578125 0.0078125 0  0.765625 0.0078125 0  0.7734375 0.0078125 0  0.78125 0.0078125 0  0.7890625 0.0078125 0  0.796875 0.0078125 0  0.8046875 0.0078125 0  0.8125 0.0078125 0  0.8203125 0.0078125 0  0.828125 0.0078125 0  0.8359375 0.0078125 0  0.84375 0.0078125 0  0.8515625 0.0078125 0  0.859375 0.0078125 0  0.8671875 0.0078125 0  0.875 0.0078125 0  0.8828125 0.0078125 0  0.890625 0.0078125 0  0.8984375 0.0078125 0  0.90625 0.0078125 0  0.9140625 0.0078125 0  0.921875 0.0078125 0  0.9296875 0.0078125 0  0.9375 0.0078125 0  0.9453125 0.0078125 0  0.953125 0.0078125 0  0.9609375 0.0078125 0  0.96875 0.0078125 0  0.9765625 0.0078125 0  0.984375 0.0078125 0  0.9921875 0.0078125 0  1 0.0078125 0  0 0.015625 0  0.0078125 0.015625 0  0.015625 0.015625 0  0.0234375 0.015625 0  0.03125 0.015625 0  0.0390625 0.015625 0  0.046875 0.015625 0  0.0546875 0.015625 0  0.0625 0.015625 0  0.0703125 0.015625 0  0.078125 0.015625 0  0.0859375 0.015625 0  0.09375 0.015625 0  0.1015625 0.015625 0  0.109375 0.015625 0  0.1171875 0.015625 0  0.125 0.015625 0  0.1328125 0.015625 0  0.140625 0.015625 0  0.1484375 0.015625 0  0.15625 0.015625 0  0.1640625 0.015625 0  0.171875 0.015625 0  0.1796875 0.015625 0  0.1875 0.015625 0  0.1953125 0.015625 0  0.203125 0.015625 0  0.2109375 0.015625 0  0.21875 0.015625 0  0.2265625 0.015625 0  0.234375 0.015625 0  0.2421875 0.015625 0  0.25 0.015625 0  0.2578125 0.015625 0  0.265625 0.015625 0  0.2734375 0.015625 0  0.28125 0.015625 0  0.2890625 0.015625 0  0.296875 0.015625 0  0.3046875 0.015625 0  0.3125 0.015625 0  0.3203125 0.015625 0  0.328125 0.015625 0  0.3359375 0.015625 0  0.34375 0.015625 0  0.3515625 0.015625 0  0.359375 0.015625 0  0.3671875 0.015625 0  0.375 0.015625 0  0.3828125 0.015625 0  0.390625 0.015625 0  0.3984375 0.015625 0  0.40625 0.015625 0  0.4140625 0.015625 0  0.421875 0.015625 0  0.4296875 0.015625 0  0.4375 0.015625 0  0.4453125 0.015625 0  0.453125 0.015625 0  0.4609375 0.015625 0  0.46875 0.015625 0  0.4765625 0.015625 0  0.484375 0.015625 0  0.4921875 0.015625 0  0.5 0.015625 0  0.5078125 0.015625 0  0.515625 0.015625 0  0.5234375 0.015625 0  0.53125 0.015625 0  0.5390625 0.015625 0  0.546875 0.015625 0  0.5546875 0.015625 0  0.5625 0.015625 0  0.5703125 0.015625 0  0.578125 0.015625 0  0.5859375 0.015625 0  0.59375 0.015625 0  0.6015625 0.015625 0  0.609375 0.015625 0  0.6171875 0.015625 0  0.625 0.015625 0  0.6328125 0.015625 0  0.640625 0.015625 0  0.6484375 0.015625 0  0.65625 0.015625 0  0.6640625 0.015625 0  0.671875 0.015625 0  0.6796875 0.015625 0  0.6875 0.015625 0  0.6953125 0.015625 0  0.703125 0.015625 0  0.7109375 0.015625 0  0.71875 0.015625 0  0.7265625 0.015625 0  0.734375 0.015625 0  0.7421875 0.015625 0  0.75 0.015625 0  0.7578125 0.015625 0  0.765625 0.015625 0  0.7734375 0.015625 0  0.78125 0.015625 0  0.7890625 0.015625 0  0.796875 0.015625 0  0.8046875 0.015625 0  0.8125 0.015625 0  0.8203125 0.015625 0  0.828125 0.015625 0  0.8359375 0.015625 0  0.84375 0.015625 0  0.8515625 0.015625 0  0.859375 0.015625 0  0.8671875 0.015625 0  0.875 0.015625 0  0.8828125 0.015625 0  0.890625 0.015625 0  0.8984375 0.015625 0  0.90625 0.015625 0  0.9140625 0.015625 0  0.921875 0.015625 0  0.9296875 0.015625 0  0.9375 0.015625 0  0.9453125 0.015625 0  0.953125 0.015625 0  0.9609375 0.015625 0  0.96875 0.015625 0  0.9765625 0.015625 0  0.984375 0.015625 0  0.9921875 0.015625 0  1 0.015625 0  0 0.0234375 0  0.0078125 0.0234375 0  0.015625 0.0234375 0  0.0234375 0.0234375 0  0.03125 0.0234375 0  0.0390625 0.0234375 0  0.046875 0.0234375 0  0.0546875 0.0234375 0  0.0625 0.0234375 0  0.0703125 0.0234375 0  0.078125 0.0234375 0  0.0859375 0.0234375 0  0.09375 0.0234375 0  0.1015625 0.0234375 0  0.109375 0.0234375 0  0.1171875 0.0234375 0  0.125 0.0234375 0  0.1328125 0.0234375 0  0.140625 0.0234375 0  0.1484375 0.0234375 0  0.15625 0.0234375 0  0.1640625 0.0234375 0  0.171875 0.0234375 0  0.1796875 0.0234375 0  0.1875 0.0234375 0  0.1953125 0.0234375 0  0.203125 0.0234375 0  0.2109375 0.0234375 0  0.21875 0.0234375 0  0.2265625 0.0234375 0  0.234375 0.0234375 0  0.2421875 0.0234375 0  0.25 0.0234375 0  0.2578125 0.0234375 0  0.265625 0.0234375 0  0.2734375 0.0234375 0  0.28125 0.0234375 0  0.2890625 0.0234375 0  0.296875 0.0234375 0  0.3046875 0.0234375 0  0.3125 0.0234375 0  0.3203125 0.0234375 0  0.328125 0.0234375 0  0.3359375 0.0234375 0  0.34375 0.0234375 0  0.3515625 0.0234375 0  0.359375 0.0234375 0  0.3671875 0.0234375 0  0.375 0.0234375 0  0.3828125 0.0234375 0  0.390625 0.0234375 0  0.3984375 0.0234375 0  0.40625 0.0234375 0  0.4140625 0.0234375 0  0.421875 0.0234375 0  0.4296875 0.0234375 0  0.4375 0.0234375 0  0.4453125 0.0234375 0  0.453125 0.0234375 0  0.4609375 0.0234375 0  0.46875 0.0234375 0  0.4765625 0.0234375 0  0.484375 0.0234375 0  0.4921875 0.0234375 0  0.5 0.0234375 0  0.5078125 0.0234375 0  0.515625 0.0234375 0  0.5234375 0.0234375 0  0.53125 0.0234375 0  0.5390625 0.0234375 0  0.546875 0.0234375 0  0.5546875 0.0234375 0  0.5625 0.0234375 0  0.5703125 0.0234375 0  0.578125 0.0234375 0  0.5859375 0.0234375 0  0.59375 0.0234375 0  0.6015625 0.0234375 0  0.609375 0.0234375 0  0.6171875 0.0234375 0  0.625 0.0234375 0  0.6328125 0.0234375 0  0.640625 0.0234375 0  0.6484375 0.0234375 0  0.65625 0.0234375 0  0.6640625 0.0234375 0  0.671875 0.0234375 0  0.6796875 0.0234375 0  0.6875 0.0234375 0  0.6953125 0.0234375 0  0.703125 0.0234375 0  0.7109375 0.0234375 0  0.71875 0.0234375 0  0.7265625 0.0234375 0  0.734375 0.0234375 0  0.7421875 0.0234375 0  0.75 0.0234375 0  0.7578125 0.0234375 0  0.765625 0.0234375 0  0.7734375 0.0234375 0  0.78125 0.0234375 0  0.7890625 0.0234375 0  0.796875 0.0234375 0  0.8046875 0.0234375 0  0.8125 0.0234375 0  0.8203125 0.0234375 0  0.828125 0.0234375 0  0.8359375 0.0234375 0  0.84375 0.0234375 0  0.8515625 0.0234375 0  0.859375 0.0234375 0  0.8671
[...]
<PointData  Scalars="f_97099-2"> 
<DataArray  type="Float64"  Name="f_97099-2"  format="ascii">-0.0000000000000000e+00  -0.0000000000000000e+00  -0.0000000000000000e+00  -0.0000000000000000e+00  -0.0000000000000000e+00  -0.0000000000000000e+00  -0.0000000000000000e+00  -0.0000000000000000e+00  -0.0000000000000000e+00  -0.0000000000000000e+00  -0.0000000000000000e+00  -0.0000000000000000e+00  -0.0000000000000000e+00  -0.0000000000000000e+00  -0.0000000000000000e+00  -0.0000000000000000e+00  -0.0000000000000000e+00  -0.0000000000000000e+00  -0.0000000000000000e+00  -0.0000000000000000e+00  -0.0000000000000000e+00  -0.0000000000000000e+00  -0.0000000000000000e+00  -0.0000000000000000e+00  -0.0000000000000000e+00  -0.0000000000000000e+00  -0.0000000000000000e+00  -0.0000000000000000e+00  -0.0000000000000000e+00  -0.0000000000000000e+00  -0.0000000000000000e+00  -0.0000000000000000e+00  -0.0000000000000000e+00  -0.0000000000000000e+00  -0.0000000000000000e+00  -0.0000000000000000e+00  -0.0000000000000000e+00  -0.0000000000000000e+00  -0.0000000000000000e+00  -0.0000000000000000e+00  -0.0000000000000000e+00  -0.0000000000000000e+00  -0.0000000000000000e+00  -0.0000000000000000e+00  -0.0000000000000000e+00  -0.0000000000000000e+00  -0.0000000000000000e+00  -0.0000000000000000e+00  -0.0000000000000000e+00  -0.0000000000000000e+00  -0.0000000000000000e+00  -0.0000000000000000e+00  -0.0000000000000000e+00  -0.0000000000000000e+00  -0.0000000000000000e+00  -0.0000000000000000e+00  -0.0000000000000000e+00  -0.0000000000000000e+00  -0.0000000000000000e+00  -0.0000000000000000e+00  -0.0000000000000000e+00  -0.0000000000000000e+00  -0.0000000000000000e+00  -0.0000000000000000e+00  -0.0000000000000000e+00  0.0000000000000000e+00  0.0000000000000000e+00  0.0000000000000000e+00  0.0000000000000000e+00  0.0000000000000000e+00  0.0000000000000000e+00  0.0000000000000000e+00  0.0000000000000000e+00  0.0000000000000000e+00  0.0000000000000000e+00  0.0000000000000000e+00  0.0000000000000000e+00  0.0000000000000000e+00  0.0000000000000000e+00  0.0000000000000000e+00  0.0000000000000000e+00  0.0000000000000000e+00  0.0000000000000000e+00  0.0000000000000000e+00  0.0000000000000000e+00  0.0000000000000000e+00  0.0000000000000000e+00  0.0000000000000000e+00  0.0000000000000000e+00  0.0000000000000000e+00  0.0000000000000000e+00  0.0000000000000000e+00  0.0000000000000000e+00  0.0000000000000000e+00  0.0000000000000000e+00  0.0000000000000000e+00  0.0000000000000000e+00  0.0000000000000000e+00  0.0000000000000000e+00  0.0000000000000000e+00  0.0000000000000000e+00  0.0000000000000000e+00  0.0000000000000000e+00  0.0000000000000000e+00  0.0000000000000000e+00  0.0000000000000000e+00  0.0000000000000000e+00  0.0000000000000000e+00  0.0000000000000000e+00  0.0000000000000000e+00  0.0000000000000000e+00  0.0000000000000000e+00  0.0000000000000000e+00  0.0000000000000000e+00  0.0000000000000000e+00  0.0000000000000000e+00  0.0000000000000000e+00  0.0000000000000000e+00  0.0000000000000000e+00  0.0000000000000000e+00  0.0000000000000000e+00  0.0000000000000000e+00  0.0000000000000000e+00  0.0000000000000000e+00  0.0000000000000000e+00  0.0000000000000000e+00  0.0000000000000000e+00  0.0000000000000000e+00  0.0000000000000000e+00  -1.9274437650860398e-04  -1.9246265525499679e-04  -1.9203694720913334e-04  -1.9147593544499437e-04  -1.9078477705935715e-04  -1.8996708477390695e-04  -1.8902566849578878e-04  -1.8796288178175619e-04  -1.8678080299036075e-04  -1.8548133838145185e-04  -1.8406628498987039e-04  -1.8253737118374314e-04  -1.8089628404285575e-04  -1.7914468853003258e-04  -1.7728424131890254e-04  -1.7531660100780788e-04  -1.7324343580863628e-04  -1.7106642942039951e-04  -1.6878728556467645e-04  -1.6640773151233625e-04  -1.6392952083419895e-04  -1.6135443554358170e-04  -1.5868428775419726e-04  -1.5592092094565132e-04  -1.5306621090662749e-04  -1.5012206640970229e-04  -1.4709042965989940e-04  -1.4397327655017858e-04  -1.4077261675047938e-04  -1.3749049365177770e-04  -1.3412898418259660e-04  -1.3069019851251278e-04  -1.2717627965459105e-04  -1.2358940297692747e-04  -1.1993177563184990e-04  -1.1620563591013385e-04  -1.1241325252648240e-04  -1.0855692384197556e-04  -1.0463897702818624e-04  -1.0066176717738350e-04  -9.6627676362594656e-05  -9.2539112651054083e-05  -8.8398509074116252e-05  -8.4208322556639741e-05  -7.9971032808340826e-05  -7.5689141179714024e-05  -7.1365169484750716e-05  -6.7001658792566389e-05  -6.2601168190136195e-05  -5.8166273517868251e-05  -5.3699566080015838e-05  -4.9203651331583933e-05  -4.4681147543510092e-05  -4.0134684447707169e-05  -3.5566901863553575e-05  -3.0980448307325031e-05  -2.6377979586185780e-05  -2.1762157378056794e-05  -1.7135647798783515e-05  -1.2501119958157116e-05  -7.8612445058668198e-06  -3.2186921689880484e-06  1.4238677178791528e-06  6.0637686884558657e-06  1.0698348625416370e-05  1.5324951244496476e-05  1.9940927581024721e-05  2.4543637477385361e-05  2.9130451070728265e-05  3.3698750279317435e-05  3.8245930286685946e-05  4.2769401022417486e-05  4.7266588638523041e-05  5.1734936980312298e-05  5.6171909050870489e-05  6.0574988468068024e-05  6.4941680913171442e-05  6.9269515570191917e-05  7.3556046555112072e-05  7.7798854334109712e-05  8.1995547130035685e-05  8.6143762316402540e-05  9.0241167798290174e-05  9.4285463379370217e-05  9.8274382114772158e-05  1.0220569164910985e-04  1.0607719553940663e-04  1.0988673456259928e-04  1.1363218800751229e-04  1.1731147495121109e-04  1.2092255551985442e-04  1.2446343213440707e-04  1.2793215074158627e-04  1.3132680203082291e-04  1.3464552263818834e-04  1.3788649633857982e-04  1.4104795522786718e-04  1.4412818089705061e-04  1.4712550560111370e-04  1.5003831342585598e-04  1.5286504145677383e-04  1.5560418095500076e-04  1.5825427854651014e-04  1.6081393743225497e-04  1.6328181862873707e-04  1.6565664225078928e-04  1.6793718885136928e-04  1.7012230083692051e-04  1.7221088398184801e-04  1.7420190907215099e-04  1.7609441371708095e-04  1.7788750437946834e-04  1.7958035869166828e-04  1.8117222814685607e-04  1.8266244128786836e-04  1.8405040756298984e-04  1.8533562208837058e-04  1.8651767166410230e-04  1.8759624255993185e-04  1.8857113086149274e-04  1.8944225663313624e-04  1.9020968397719852e-04  1.9087365060900456e-04  1.9143461363652390e-04  1.9189332486082777e-04  1.9225096470744382e-04  1.9250940652312825e-04  1.9267181904614051e-04  1.9274437650860398e-04  -3.8537265101197565e-04  -3.8478028128287182e-04  -3.8391129672442803e-04  -3.8277718932747568e-04  -3.8138589210016298e-04  -3.7974348051634718e-04  -3.7785496175125850e-04  -3.7572468726268808e-04  -3.7335659116501563e-04  -3.7075433772811083e-04  -3.6792141723506616e-04  -3.6486121078661545e-04  -3.6157703559112507e-04  -3.5807217751667602e-04  -3.5434991504325743e-04  -3.5041353723125817e-04  -3.4626635741256419e-04  -3.4191172374874407e-04  -3.3735302744343802e-04  -3.3259370916278211e-04  -3.2763726406130839e-04  -3.2248724570412468e-04  -3.1714726910153445e-04  -3.1162101301941963e-04  -3.0591222169037871e-04  -3.0002470602274566e-04  -2.9396234438372405e-04  -2.8772908301726913e-04  -2.8132893614540161e-04  -2.7476598579259404e-04  -2.6804438136561394e-04  -2.6116833901578494e-04  -2.5414214080607194e-04  -2.4697013370206890e-04  -2.3965672840298245e-04  -2.3220639802661145e-04  -2.2462367666019990e-04  -2.1691315778789560e-04  -2.0907949260400146e-04  -2.0112738822034438e-04  -1.9306160577508251e-04  -1.8488695844978942e-04  -1.7660830940077700e-04  -1.6823056961039868e-04  -1.5975869566331043e-04  -1.5119768745269980e-04  -1.4255258582081737e-04  -1.3382847013813682e-04  -1.2503045582507594e-04  -1.1616369182015745e-04  -1.0723335799806802e-04  -9.8244662541425385e-05  -8.9202839269180443e-05  -8.0113144925240425e-05  -7.0980856430261088e-05  -6.1811268099680919e-05  -5.2609688830962475e-05  -4.3381439262987885e-05  -3.4131848910245385e-05  -2.4866253274855897e-05  -1.5589990938791211e-05  -6.3084006392246000e-06  2.9731816705702475e-06  1.2249425772131215e-05  2.1515010142110201e-05  3.0764624919420125e-05  3.9992974876912872e-05  4.9194782395093893e-05  5.8364790435739118e-05  6.7497765512928459e-05  7.6588500659430884e-05  8.5631818386198836e-05  9.4622573632821978e-05  1.0355565670685031e-04  1.1242599621012241e-04  1.2122856194991013e-04  1.2995836783311084e-04  1.3861047474166235e-04  1.4717999338742811e-04  1.5566208714481227e-04  1.6405197485964420e-04  1.7234493363272216e-04  1.8053630157672542e-04  1.8862148054524532e-04  1.9659593883271622e-04  2.0445521384438329e-04  2.1219491473548128e-04  2.1981072501894042e-04  2.2729840514130079e-04  2.3465379502661459e-04  2.4187281658853376e-04  2.4895147621085506e-04  2.5588586719761864e-04  2.6267217219368215e-04  2.6930666557774594e-04  2.7578571583005530e-04  2.8210578787785589e-04  2.8826344542241599e-04  2.9425535325245999e-04  3.0007827955009624e-04  3.0572909819665700e-04  3.1120479108764736e-04  3.1650245046824617e-04  3.2161928130328902e-04  3.2655260369913807e-04  3.3129985539891214e-04  3.3585859437788184e-04  3.4022650157261044e-04  3.4440138378616277e-04  3.4838117682323453e-04  3.5216394892424588e-04  3.5574790458791608e-04  3.5913138889956994e-04  3.6231289252092300e-04  3.6529105755113493e-04  3.6806468454628633e-04  3.7063274109751834e-04  3.7299437253719600e-04  3.7514891560171164e-04  3.7709591628854448e-04  3.7883515381146010e-04  3.8036667368363756e-04  3.8169083494412915e-04  3.8280838022590209e-04  3.8372054462131912e-04  3.8442923469134301e-04  3.8493734452469026e-04  3.8524936466425625e-04  3.8537265101197565e-04  -5.7776879144038923e-04  -5.7684528838624922e-04  -5.7551809644771929e-04  -5.7379966291372386e-04  -5.7169957045176043e-04  -5.6922565260511093e-04  -5.6638465119575982e-04  -5.6318260437857677e-04  -5.5962508771921309e-04  -5.5571737181778897e-04  -5.5146452974514217e-04  -5.4687151267619619e-04  -5.4194320453962528e-04  -5.3668446237114045e-04  -5.3110014665692527e-04  -5.2519514449614346e-04  -5.1897438749669452e-04  -5.1244286572871766e-04  -5.0560563867108077e-04  -4.9846784382369207e-04  -4.9103470347786385e-04  -4.8331153001085687e-04  -4.7530372998064993e-04  -4.6701680723206001e-04  -4.5845636517779451e-04  -4.4962810838255725e-04  -4.4053784355185875e-04  -4.3119148000692709e-04  -4.2159502971163141e-04  -4.1175460690534121e-04  -4.0167642738621508e-04  -3.9136680748196750e-04  -3.8083216273930912e-04  -3.7007900635855121e-04  -3.5911394739597449e-04  -3.4794368875355498e-04  -3.3657502497306608e-04  -3.2501483984951550e-04  -3.1327010387720869e-04  -3.0134787154021515e-04  -2.8925527845789740e-04  -2.7699953839518856e-04  -2.6458794014644907e-04  -2.5202784430093927e-04  -2.3932667989752483e-04  -2.2649194097553309e-04  -2.1353118302843053e-04  -2.0045201936643654e-04  -1.8726211739396897e-04  -1.7396919480758231e-04  -1.6058101571961363e-04  -1.4710538671286225e-04  -1.3355015283108304e-04  -1.1992319351019197e-04  -1.0623241845480832e-04  -9.2485763464613611e-05  -7.8691186214964099e-05  -6.4856661996047407e-05  -5.0990179414761108e-05  -3.7099736063433794e-05  -2.3193334159414992e-05  -9.2789761594978420e-06  4.6353396469799709e-06  1.8541623562516283e-05  3.2431898919579257e-05  4.6298206528826142e-05  6.0132609133818384e-05  7.3927195868571957e-05  8.7674086714651791e-05  1.0136543695419847e-04  1.1499344161571572e-04  1.2855033990920428e-04  1.4202841964750242e-04  1.5542002165071413e-04  1.6871754413065910e-04  1.8191344705239919e-04  1.9500025646996478e-04  2.0797056883352364e-04  2.2081705526532129e-04  2.3353246580188502e-04  2.4610963360007865e-04  2.5854147910471043e-04  2.7082101417557817e-04  2.8294134617205612e-04  2.9489568199339453e-04  3.0667733207326336e-04  3.1827971432722756e-04  3.2969635805205229e-04  3.4092090777619832e-04  3.5194712706107777e-04  3.6276890225303050e-04  3.7338024618658986e-04  3.8377530183987025e-04  3.9394834594377339e-04  4.0389379254721335e-04  4.1360619654146638e-04  4.2308025714770796e-04  4.3231082137293970e-04  4.4129288744077720e-04  4.5002160820535169e-04  4.5849229455838502e-04  4.6670041884192849e-04  4.7464161828217522e-04  4.8231169846325281e-04  4.8970663686434969e-04  4.9682258648906842e-04  5.0365587962277424e-04  5.1020303176264057e-04  5.1646074577633636e-04  5.2242591636012588e-04  5.2809563488635661e-04  5.3346719475598936e-04  5.3853809740620601e-04  5.4330605917002773e-04  5.4776901924973899e-04  5.5192514915698373e-04  5.5577286410273897e-04  5.5931083701039885e-04  5.6253801610829364e-04  5.6545364749007582e-04  5.6805730470870083e-04  5.7034892856535290e-04  5.7232888209162640e-04  5.7399802893483948e-04  5.7535784923265151e-04  5.7641061826010735e-04  5.7715969457157088e-04  5.7761000009744234e-04  5.7776879144038923e-04  -7.6981690555300583e-04  -7.6854664394094250e-04  -7.6674886153598203e-04  -7.6443636226969066e-04  -7.6161980262104108e-04  -7.5830834887180803e-04  -7.5451016609755217e-04  -7.5023274767743449e-04  -7.4548313658215717e-04  -7.4026807753616660e-04  -7.3459412473035873e-04  -7.2846772009667923e-04  -7.2189525144150733e-04  -7.1488309639588903e-04  -7.0743765612989510e-04  -6.9956538152044585e-04  -6.9127279364772311e-04  -6.8256649995389784e-04  -6.7345320702947502e-04  -6.6393973073723721e-04  -6.5403300420343116e-04  -6.4374008407698275e-04  -6.3306815536369140e-04  -6.2202453507333448e-04  -6.1061667486633970e-04  -5.9885216284787123e-04  -5.8673872462776790e-04  -5.7428422374212736e-04  -5.6149666151465217e-04  -5.4838417642229546e-04  -5.3495504301868816e-04  -5.2121767046038104e-04  -5.0718060067389287e-04  -4.9285250619607963e-04  -4.7824218771573475e-04  -4.6335857134082391e-04  -4.4821070561241680e-04  -4.3280775828427354e-04  -4.1715901288463884e-04  -4.0127386507531369e-04  -3.8516181882146535e-04  -3.6883248238449848e-04  -3.5229556414934652e-04  -3.3556086829657970e-04  -3.1863829032900047e-04  -3.0153781246182156e-04  -2.8426949888494976e-04  -2.6684349090543068e-04  -2.4927000197769801e-04  -2.3155931262897617e-04  -2.1372176528682910e-04  -1.9576775901561594e-04  -1.7770774416827308e-04  -1.5955221695988176e-04  -1.4131171396901743e-04  -1.2299680657290262e-04  -1.0461809532213600e-04  -8.6186204260693244e-05  -6.7711775196756588e-05  -4.9205461929869451e-05  -3.0677924439584721e-05  -1.2139823041095438e-05  6.3981874872300804e-06  2.4925463799215948e-05  4.3431379894199362e-05  6.1905333043451308e-05  8.0336749724870630e-05  9.8715091561200983e-05  1.1702986125711525e-04  1.3527060853076354e-04  1.5342693603511394e-04  1.7148850526479669e-04  1.8944504244421185e-04  2.0728634439262945e-04  2.2500228436231749e-04  2.4258281784556219e-04  2.6001798834695704e-04  2.7729793311701158e-04  2.9441288884366119e-04  3.1135319729813150e-04  3.2810931093201715e-04  3.4467179842237927e-04  3.6103135016200214e-04  3.7717878369212957e-04  3.9310504907530278e-04  4.0880123420597181e-04  4.2425857005724311e-04  4.3946843586203628e-04  4.5442236422760181e-04  4.6911204618263719e-04  4.8352933615676362e-04  4.9766625689266666e-04  5.1151500429195322e-04  5.2506795219626036e-04  5.3831765710635031e-04  5.5125686284257058e-04  5.6387850515154264e-04  5.7617571626509092e-04  5.8814182941916706e-04  5.9977038334243756e-04  6.1105512672653074e-04  6.2199002269273961e-04  6.3256925327345725e-04  6.4278722393067709e-04  6.5263856813911462e-04  6.6211815206787051e-04  6.7122107940248248e-04  6.7994269635929358e-04  6.8827859695676122e-04  6.9622462862493190e-04  7.0377689825529678e-04  7.1093177882125352e-04  7.1768591673631601e-04  7.2403624016669204e-04  7.2997996858213188e-04  7.3551462392172163e-04  7.4063804388117729e-04  7.4534839801320210e-04  7.4964420760084769e-04  7.5352437066207904e-04  7.5698819404834109e-04  7.6003543554328790e-04  7.6266636038172105e-04  7.6488181910057992e-04  7.6668335777773766e-04  7.6807337836315025e-04  7.6905537569979142e-04  7.6963428121672682e-04  7.6981690555300583e-04  -9.6140131074702530e-04  -9.5977192349670705e-04  -9.5749334498726891e-04  -9.5457858248905426e-04  -9.5103906982961885e-04  -9.4688504168807981e-04  -9.4212587469629265e-04  -9.3677034964345153e-04  -9.3082684301886559e-04  -9.2430346614372346e-04  -9.1720816743377537e-04  -9.0954880884758791e-04  -9.0133322399483834e-04  -8.9256926294534991e-04  -8.8326482719287478e-04  -8.7342789719037134e-04  -8.6306655418231062e-04  -8.5218899758887981e-04  -8.4080355886934945e-04  -8.2891871255985627e-04  -8.1654308501376814e-04  -8.0368546125069080e-04  -7.9035479022995998e-04  -7.7656018879675127e-04  -7.6231094449794219e-04  -7.4761651742565657e-04  -7.3248654121640814e-04  -7.1693082331022431e-04  -7.0095934455579429e-04  -6.8458225823312888e-04  -6.6780988855368354e-04  -6.5065272868853545e-04  -6.3312143836789640e-04  -6.1522684108894716e-04  -5.9697992096421784e-04  -5.7839181923856949e-04  -5.5947383049948071e-04  -5.4023739860267132e-04  -5.2069411233254272e-04  -5.0085570081526078e-04  -4.8073402870048862e-04  -4.6034109112638906e-04  -4.3968900848157357e-04  -4.1879002097638300e-04  -3.9765648303530363e-04  -3.7630085752142739e-04  -3.5473570980330268e-04  -3.3297370167403216e-04  -3.1102758513190480e-04  -2.8891019603158986e-04  -2.6663444761441447e-04  -2.4421332392605689e-04  -2.2165987312957691e-04  -1.9898720072172496e-04  -1.7620846265990154e-04  -1.5333685840724753e-04  -1.3038562390304143e-04  -1.0736802446538215e-04  -8.4297347633101582e-05  -6.1186895953665066e-05  -3.8049979723647290e-05  -1.4899909688348827e-05  8.2500102930598587e-06  3.1386490610561068e-05  5.4496263288318991e-05  7.7566089385526293e-05  1.0058276640719268e-04  1.2353313571884529e-04  1.4640408995943678e-04  1.6918258044682549e-04  1.9185562456998755e-04  2.1441031316274888e-04  2.3683381785357329e-04  2.5911339838607321e-04  2.8123640990529317e-04  3.0319031020459297e-04  3.2496266692843970e-04  3.4654116472629306e-04  3.6791361235314989e-04  3.8906794971231893e-04  4.0999225483634671e-04  4.3067475080212113e-04  4.5110381257641220e-04  4.7126797378844337e-04  4.9115593342633531e-04  5.1075656245442040e-04  5.3005891034921130e-04  5.4905221155162817e-04  5.6772589183395937e-04  5.8606957458037811e-04  6.0407308698035630e-04  6.2172646613503505e-04  6.3901996507733294e-04  6.5594405870741501e-04  6.7248944964606210e-04  6.8864707400968859e-04  7.0440810711206391e-04  7.1976396909931382e-04  7.3470633052661759e-04  7.4922711788711586e-04  7.6331851910630625e-04  7.7697298901798731e-04  7.9018325484188172e-04  8.0294232168732680e-04  8.1524347811306672e-04  8.2708030178002176e-04  8.3844666524220091e-04  8.4933674193166217e-04  8.5974501240650321e-04  8.6966627094790187e-04  8.7909563261367389e-04  8.8802854088384511e-04  8.9646077607028201e-04  9.0438846471067934e-04  9.1180809023176689e-04  9.1871650525418179e-04  9.2511094603166006e-04  9.3098904968515184e-04  9.3634887513092675e-04  9.4118892894679126e-04  9.4550819792952104e-04  9.4930619086015344e-04  9.5258299315072745e-04  9.5533933978014568e-04  9.5757671437238343e-04  9.5929748506765576e-04  9.6050508866372681e-04  9.6120426548694483e-04  9.6140131074702530e-04  -1.1524066037405614e-03  -1.1504081217566390e-03  -1.1476403959864735e-03  -1.1441166338536451e-03  -1.1398489013673587e-03  -1.1348483369930792e-03  -1.1291253824022062e-03  -1.1226899825499705e-03  -1.1155517446953141e-03  -1.1077200608500689e-03  -1.0992042015012203e-03  -1.0900133877394112e-03  -1.0801568473053375e-03  -1.0696438585802797e-03  -1.0584837854204477e-03  -1.0466861049325464e-03  -1.0342604297254028e-03  -1.0212165257766602e-03  -1.0075643267715493e-03  -9.9331394556705348e-04  -9.7847568328548670e-04  -9.6306003643078662e-04  -9.4707770233749572e-04  -9.3053958319933179e-04  -9.1345678887557325e-04  -8.9584063863616973e-04  -8.7770266197699834e-04  -8.5905459861380148e-04  -8.3990839774496131e-04  -8.2027621665873456e-04  -8.0017041874885981e-04  -7.7960357099301342e-04  -7.5858844094080289e-04  -7.3713799325183897e-04  -7.1526538581909377e-04  -6.9298396550868081e-04  -6.7030726354344497e-04  -6.4724899055499340e-04  -6.2