<?xml version="1.0"?>
<VTKFile type="UnstructuredGrid"  version="0.1"  >
<UnstructuredGrid>
<Piece  NumberOfPoints="16641" NumberOfCells="32768">
<Points>
<DataArray  type="Float64"  NumberOfComponents="3"  format="ascii">0 0 0  0.0078125 0 0  0.015625 0 0  0.0234375 0 0  0.03125 0 0  0.0390625 0 0  0.046875 0 0  0.0546875 0 0  0.0625 0 0  0.0703125 0 0  0.078125 0 0  0.0859375 0 0  0.09375 0 0  0.1015625 0 0  0.109375 0 0  0.1171875 0 0  0.125 0 0  0.1328125 0 0  0.140625 0 0  0.1484375 0 0  0.15625 0 0  0.1640625 0 0  0.171875 0 0  0.1796875 0 0  0.1875 0 0  0.1953125 0 0  0.203125 0 0  0.2109375 0 0  0.21875 0 0  0.2265625 0 0  0.234375 0 0  0.2421875 0 0  0.25 0 0  0.2578125 0 0  0.265625 0 0  0.2734375 0 0  0.28125 0 0  0.2890625 0 0  0.296875 0 0  0.3046875 0 0  0.3125 0 0  0.3203125 0 0  0.328125 0 0  0.3359375 0 0  0.34375 0 0  0.3515625 0 0  0.359375 0 0  0.3671875 0 0  0.375 0 0  0.3828125 0 0  0.390625 0 0  0.3984375 0 0  0.40625 0 0  0.4140625 0 0  0.421875 0 0  0.4296875 0 0  0.4375 0 0  0.4453125 0 0  0.453125 0 0  0.4609375 0 0  0.46875 0 0  0.4765625 0 0  0.484375 0 0  0.4921875 0 0  0.5 0 0  0.5078125 0 0  0.515625 0 0  0.5234375 0 0  0.53125 0 0  0.5390625 0 0  0.546875 0 0  0.5546875 0 0  0.5625 0 0  0.5703125 0 0  0.578125 0 0  0.5859375 0 0  0.59375 0 0  0.6015625 0 0  0.609375 0 0  0.6171875 0 0  0.625 0 0  0.6328125 0 0  0.640625 0 0  0.6484375 0 0  0.65625 0 0  0.6640625 0 0  0.671875 0 0  0.6796875 0 0  0.6875 0 0  0.6953125 0 0  0.703125 0 0  0.7109375 0 0  0.71875 0 0  0.7265625 0 0  0.734375 0 0  0.7421875 0 0  0.75 0 0  0.7578125 0 0  0.765625 0 0  0.7734375 0 0  0.78125 0 0  0.7890625 0 0  0.796875 0 0  0.8046875 0 0  0.8125 0 0  0.8203125 0 0  0.828125 0 0  0.8359375 0 0  0.84375 0 0  0.8515625 0 0  0.859375 0 0  0.8671875 0 0  0.875 0 0  0.8828125 0 0  0.890625 0 0  0.8984375 0 0  0.90625 0 0  0.9140625 0 0  0.921875 0 0  0.9296875 0 0  0.9375 0 0  0.9453125 0 0  0.953125 0 0  0.9609375 0 0  0.96875 0 0  0.9765625 0 0  0.984375 0 0  0.9921875 0 0  1 0 0  0 0.0078125 0  0.0078125 0.0078125 0  0.015625 0.0078125 0  0.0234375 0.0078125 0  0.03125 0.0078125 0  0.0390625 0.0078125 0  0.046875 0.0078125 0  0.0546875 0.0078125 0  0.0625 0.0078125 0  0.0703125 0.0078125 0  0.078125 0.0078125 0  0.0859375 0.0078125 0  0.09375 0.0078125 0  0.1015625 0.0078125 0  0.109375 0.0078125 0  0.1171875 0.0078125 0  0.125 0.0078125 0  0.1328125 0.0078125 0  0.140625 0.0078125 0  0.1484375 0.0078125 0  0.15625 0.0078125 0  0.1640625 0.0078125 0  0.171875 0.0078125 0  0.1796875 0.0078125 0  0.1875 0.0078125 0  0.1953125 0.0078125 0  0.203125 0.0078125 0  0.2109375 0.0078125 0  0.21875 0.0078125 0  0.2265625 0.0078125 0  0.234375 0.0078125 0  0.2421875 0.0078125 0  0.25 0.0078125 0  0.2578125 0.0078125 0  0.265625 0.0078125 0  0.2734375 0.0078125 0  0.28125 0.0078125 0  0.2890625 0.0078125 0  0.296875 0.0078125 0  0.3046875 0.0078125 0  0.3125 0.0078125 0  0.3203125 0.0078125 0  0.328125 0.0078125 0  0.3359375 0.0078125 0  0.34375 0.0078125 0  0.3515625 0.0078125 0  0.359375 0.0078125 0  0.3671875 0.0078125 0  0.375 0.0078125 0  0.3828125 0.0078125 0  0.390625 0.0078125 0  0.3984375 0.0078125 0  0.40625 0.0078125 0  0.4140625 0.0078125 0  0.421875 0.0078125 0  0.4296875 0.0078125 0  0.4375 0.0078125 0  0.4453125 0.0078125 0  0.453125 0.0078125 0  0.4609375 0.0078125 0  0.46875 0.0078125 0  0.4765625 0.0078125 0  0.484375 0.0078125 0  0.4921875 0.0078125 0  0.5 0.0078125 0  0.5078125 0.0078125 0  0.515625 0.0078125 0  0.5234375 0.0078125 0  0.53125 0.0078125 0  0.5390625 0.0078125 0  0.546875 0.0078125 0  0.5546875 0.0078125 0  0.5625 0.0078125 0  0.5703125 0.0078125 0  0.578125 0.0078125 0  0.5859375 0.0078125 0  0.59375 0.0078125 0  0.6015625 0.0078125 0  0.609375 0.0078125 0  0.6171875 0.0078125 0  0.625 0.0078125 0  0.6328125 0.0078125 0  0.640625 0.0078125 0  0.6484375 0.0078125 0  0.65625 0.0078125 0  0.6640625 0.0078125 0  0.671875 0.0078125 0  0.6796875 0.0078125 0  0.6875 0.0078125 0  0.6953125 0.0078125 0  0.703125 0.0078125 0  0.7109375 0.0078125 0  0.71875 0.0078125 0  0.7265625 0.0078125 0  0.734375 0.0078125 0  0.7421875 0.0078125 0  0.75 0.0078125 0  0.7578125 0.0078125 0  0.765625 0.0078125 0  0.7734375 0.0078125 0  0.78125 0.0078125 0  0.7890625 0.0078125 0  0.796875 0.0078125 0  0.8046875 0.0078125 0  0.8125 0.0078125 0  0.8203125 0.0078125 0  0.828125 0.0078125 0  0.8359375 0.0078125 0  0.84375 0.0078125 0  0.8515625 0.0078125 0  0.859375 0.0078125 0  0.8671875 0.0078125 0  0.875 0.0078125 0  0.8828125 0.0078125 0  0.890625 0.0078125 0  0.8984375 0.0078125 0  0.90625 0.0078125 0  0.9140625 0.0078125 0  0.921875 0.0078125 0  0.9296875 0.0078125 0  0.9375 0.0078125 0  0.9453125 0.0078125 0  0.953125 0.0078125 0  0.9609375 0.0078125 0  0.96875 0.0078125 0  0.9765625 0.0078125 0  0.984375 0.0078125 0  0.9921875 0.0078125 0  1 0.0078125 0  0 0.015625 0  0.0078125 0.015625 0  0.015625 0.015625 0  0.0234375 0.015625 0  0.03125 0.015625 0  0.0390625 0.015625 0  0.046875 0.015625 0  0.0546875 0.015625 0  0.0625 0.015625 0  0.0703125 0.015625 0  0.078125 0.015625 0  0.0859375 0.015625 0  0.09375 0.015625 0  0.1015625 0.015625 0  0.109375 0.015625 0  0.1171875 0.015625 0  0.125 0.015625 0  0.1328125 0.015625 0  0.140625 0.015625 0  0.1484375 0.015625 0  0.15625 0.015625 0  0.1640625 0.015625 0  0.171875 0.015625 0  0.1796875 0.015625 0  0.1875 0.015625 0  0.1953125 0.015625 0  0.203125 0.015625 0  0.2109375 0.015625 0  0.21875 0.015625 0  0.2265625 0.015625 0  0.234375 0.015625 0  0.2421875 0.015625 0  0.25 0.015625 0  0.2578125 0.015625 0  0.265625 0.015625 0  0.2734375 0.015625 0  0.28125 0.015625 0  0.2890625 0.015625 0  0.296875 0.015625 0  0.3046875 0.015625 0  0.3125 0.015625 0  0.3203125 0.015625 0  0.328125 0.015625 0  0.3359375 0.015625 0  0.34375 0.015625 0  0.3515625 0.015625 0  0.359375 0.015625 0  0.3671875 0.015625 0  0.375 0.015625 0  0.3828125 0.015625 0  0.390625 0.015625 0  0.3984375 0.015625 0  0.40625 0.015625 0  0.4140625 0.015625 0  0.421875 0.015625 0  0.4296875 0.015625 0  0.4375 0.015625 0  0.4453125 0.015625 0  0.453125 0.015625 0  0.4609375 0.015625 0  0.46875 0.015625 0  0.4765625 0.015625 0  0.484375 0.015625 0  0.4921875 0.015625 0  0.5 0.015625 0  0.5078125 0.015625 0  0.515625 0.015625 0  0.5234375 0.015625 0  0.53125 0.015625 0  0.5390625 0.015625 0  0.546875 0.015625 0  0.5546875 0.015625 0  0.5625 0.015625 0  0.5703125 0.015625 0  0.578125 0.015625 0  0.5859375 0.015625 0  0.59375 0.015625 0  0.6015625 0.015625 0  0.609375 0.015625 0  0.6171875 0.015625 0  0.625 0.015625 0  0.6328125 0.015625 0  0.640625 0.015625 0  0.6484375 0.015625 0  0.65625 0.015625 0  0.6640625 0.015625 0  0.671875 0.015625 0  0.6796875 0.015625 0  0.6875 0.015625 0  0.6953125 0.015625 0  0.703125 0.015625 0  0.7109375 0.015625 0  0.71875 0.015625 0  0.7265625 0.015625 0  0.734375 0.015625 0  0.7421875 0.015625 0  0.75 0.015625 0  0.7578125 0.015625 0  0.765625 0.015625 0  0.7734375 0.015625 0  0.78125 0.015625 0  0.7890625 0.015625 0  0.796875 0.015625 0  0.8046875 0.015625 0  0.8125 0.015625 0  0.8203125 0.015625 0  0.828125 0.015625 0  0.8359375 0.015625 0  0.84375 0.015625 0  0.8515625 0.015625 0  0.859375 0.015625 0  0.8671875 0.015625 0  0.875 0.015625 0  0.8828125 0.015625 0  0.890625 0.015625 0  0.8984375 0.015625 0  0.90625 0.015625 0  0.9140625 0.015625 0  0.921875 0.015625 0  0.9296875 0.015625 0  0.9375 0.015625 0  0.9453125 0.015625 0  0.953125 0.015625 0  0.9609375 0.015625 0  0.96875 0.015625 0  0.9765625 0.015625 0  0.984375 0.015625 0  0.9921875 0.015625 0  1 0.015625 0  0 0.0234375 0  0.0078125 0.0234375 0  0.015625 0.0234375 0  0.0234375 0.0234375 0  0.03125 0.0234375 0  0.0390625 0.0234375 0  0.046875 0.0234375 0  0.0546875 0.0234375 0  0.0625 0.0234375 0  0.0703125 0.0234375 0  0.078125 0.0234375 0  0.0859375 0.0234375 0  0.09375 0.0234375 0  0.1015625 0.0234375 0  0.109375 0.0234375 0  0.1171875 0.0234375 0  0.125 0.0234375 0  0.1328125 0.0234375 0  0.140625 0.0234375 0  0.1484375 0.0234375 0  0.15625 0.0234375 0  0.1640625 0.0234375 0  0.171875 0.0234375 0  0.1796875 0.0234375 0  0.1875 0.0234375 0  0.1953125 0.0234375 0  0.203125 0.0234375 0  0.2109375 0.0234375 0  0.21875 0.0234375 0  0.2265625 0.0234375 0  0.234375 0.0234375 0  0.2421875 0.0234375 0  0.25 0.0234375 0  0.2578125 0.0234375 0  0.265625 0.0234375 0  0.2734375 0.0234375 0  0.28125 0.0234375 0  0.2890625 0.0234375 0  0.296875 0.0234375 0  0.3046875 0.0234375 0  0.3125 0.0234375 0  0.3203125 0.0234375 0  0.328125 0.0234375 0  0.3359375 0.0234375 0  0.34375 0.0234375 0  0.3515625 0.0234375 0  0.359375 0.0234375 0  0.3671875 0.0234375 0  0.375 0.0234375 0  0.3828125 0.0234375 0  0.390625 0.0234375 0  0.3984375 0.0234375 0  0.40625 0.0234375 0  0.4140625 0.0234375 0  0.421875 0.0234375 0  0.4296875 0.0234375 0  0.4375 0.0234375 0  0.4453125 0.0234375 0  0.453125 0.0234375 0  0.4609375 0.0234375 0  0.46875 0.0234375 0  0.4765625 0.0234375 0  0.484375 0.0234375 0  0.4921875 0.0234375 0  0.5 0.0234375 0  0.5078125 0.0234375 0  0.515625 0.0234375 0  0.5234375 0.0234375 0  0.53125 0.0234375 0  0.5390625 0.0234375 0  0.546875 0.0234375 0  0.5546875 0.0234375 0  0.5625 0.0234375 0  0.5703125 0.0234375 0  0.578125 0.0234375 0  0.5859375 0.0234375 0  0.59375 0.0234375 0  0.6015625 0.0234375 0  0.609375 0.0234375 0  0.6171875 0.0234375 0  0.625 0.0234375 0  0.6328125 0.0234375 0  0.640625 0.0234375 0  0.6484375 0.0234375 0  0.65625 0.0234375 0  0.6640625 0.0234375 0  0.671875 0.0234375 0  0.6796875 0.0234375 0  0.6875 0.0234375 0  0.6953125 0.0234375 0  0.703125 0.0234375 0  0.7109375 0.0234375 0  0.71875 0.0234375 0  0.7265625 0.0234375 0  0.734375 0.0234375 0  0.7421875 0.0234375 0  0.75 0.0234375 0  0.7578125 0.0234375 0  0.765625 0.0234375 0  0.7734375 0.0234375 0  0.78125 0.0234375 0  0.7890625 0.0234375 0  0.796875 0.0234375 0  0.8046875 0.0234375 0  0.8125 0.0234375 0  0.8203125 0.0234375 0  0.828125 0.0234375 0  0.8359375 0.0234375 0  0.84375 0.0234375 0  0.8515625 0.0234375 0  0.859375 0.0234375 0  0.8671
[...]
<CellData  Scalars="f_195995"> 
<DataArray  type="Float64"  Name="f_195995"  format="ascii">1.6448540462150548e-02   1.6448540417799074e-02   1.6430125870130406e-02   1.6789485834082258e-02   1.6387677461616276e-02   1.6751590727920204e-02   1.6324669348882121e-02   1.6693134176619877e-02   1.6241137514756577e-02   1.6613975116342380e-02   1.6137241039979745e-02   1.6514056682401843e-02   1.6013280772021927e-02   1.6393572564261823e-02   1.5869654300843399e-02   1.6252877477058471e-02   1.5706823771480700e-02   1.6092419504058843e-02   1.5525298324389581e-02   1.5912705662761796e-02   1.5325624969488269e-02   1.5714285721632689e-02   1.5108383954662186e-02   1.5497744648572943e-02   1.4874186349533922e-02   1.5263699087444481e-02   1.4623672831851019e-02   1.5012795680588610e-02   1.4357512886138676e-02   1.4745710252908736e-02   1.4076404298393772e-02   1.4463147277957569e-02   1.3781072510935119e-02   1.4165839407373836e-02   1.3472270015520108e-02   1.3854546870951671e-02   1.3150775514702373e-02   1.3530056820539154e-02   1.2817392959989623e-02   1.3193182360649734e-02   1.2472950374055700e-02   1.2844761535559608e-02   1.2118298603723071e-02   1.2485656023221114e-02   1.1754309807697884e-02   1.2116749739549890e-02   1.1381875909315985e-02   1.1738947258543875e-02   1.1001906853369593e-02   1.1353172128483855e-02   1.0615328796304580e-02   1.0960364992969148e-02   1.0223082173047255e-02   1.0561481727717750e-02   9.8261197295255558e-03   1.0157491355777303e-02   9.4254043645569299e-03   9.7493740196346046e-03   9.0219070847037293e-03   9.3381187369957104e-03   8.6166047551061234e-03   8.9247212466614448e-03   8.2104779284784043e-03   8.5101817157972239e-03   7.8045085180433339e-03   8.0955024553753530e-03   7.3996776615618508e-03   7.6816856091908824e-03   6.9969631962543558e-03   7.2697308036640106e-03   6.5973376274082720e-03   6.8606328006421222e-03   6.2017656582252570e-03   6.4553791953702814e-03   5.8112019998538553e-03   6.0549480207773955e-03   5.4265890544982235e-03   5.6603055049174195e-03   5.0488547492468852e-03   5.2724037168953549e-03   4.6789102262117252e-03   4.8921783438826841e-03   4.3176477674610192e-03   4.5205464097736476e-03   3.9659385845824133e-03   4.1584041423659412e-03   3.6246308194874612e-03   3.8066247845059452e-03   3.2945474242423120e-03   3.4660565525732804e-03   2.9764842620482929e-03   3.1375205412100442e-03   2.6712081625785518e-03   2.8218088151659849e-03   2.3794551014604797e-03   2.5196824794287390e-03   2.1019284135186922e-03   2.2318698708948003e-03   1.8392971404273075e-03   1.9590647795303794e-03   1.5921943827476325e-03   1.7019248221786199e-03   1.3612158231663663e-03   1.4610698370470401e-03   1.1469182524084115e-03   1.2370804125998698e-03   9.4981827289988482e-04   1.0304964738380577e-03   7.7039102616054296e-04   8.4181600212486203e-04   6.0906908024316113e-04   6.7149383254253481e-04   4.6624136448705371e-04   5.1994056744396561e-04   3.4225225839408670e-04   3.8752157472544935e-04   2.3740075027576016e-04   2.7455613456966863e-04   1.5193973284284126e-04   1.8131665285815965e-04   8.6075385976352176e-05   1.0802802277127411e-04   3.9966692841982249e-05   5.4867075058750910e-05   1.3725057697243076e-05   2.1962165568738198e-05   7.4140422491045162e-06   9.3928625922362893e-06   2.1049215199150266e-05   1.7189762830604376e-05   5.4598124066260386e-05   4.5334419332982221e-05   1.0798037682423724e-04   9.3759395654222446e-05   1.8106783648115689e-04   1.6234842872580151e-04   2.7368495013454011e-04   2.5093671262570091e-04   3.8560916358271516e-04   3.5931131054264224e-04   5.1657147776086436e-04   4.8721166490614195e-04   6.6625709565744384e-04   6.3433024389385434e-04   8.3430621009021404e-04   8.0031327340149196e-04   1.0203148574920698e-03   9.8476162591530593e-04   1.2238359326850743e-03   1.1872317670356927e-03   1.4443802455245266e-03   1.4072368553155960e-03   1.6814177642597513e-03   1.6442479128434128e-03   1.9343788703760178e-03   1.8976951410452783e-03   2.2026557874698632e-03   2.1669692836951398e-03   2.4856040289126997e-03   2.4514231402250741e-03   2.7825440431351245e-03   2.7503731246095392e-03   3.0927628231717072e-03   3.0631009825723603e-03   3.4155157093061096e-03   3.3888554939298142e-03   3.7500281859748300e-03   3.7268543794702564e-03   4.0954978568298016e-03   4.0762861733786189e-03   4.4510963704871139e-03   4.4363122889410113e-03   4.8159715342484298e-03   4.8060690086756076e-03   5.1892494058524974e-03   5.1846697297581292e-03   5.5700365198619187e-03   5.5712070594509631e-03   5.9574221036894550e-03   5.9647551829609012e-03   6.3504804260991971e-03   6.3643721187339915e-03   6.7482730766201815e-03   6.7691021177822682e-03   7.1498514674603227e-03   7.1779780644824825e-03   7.5542592014003060e-03   7.5900239735874004e-03   7.9605345915327082e-03   8.0042574512741715e-03   8.3677131555573211e-03   8.4196922579002180e-03   8.7748302290906171e-03   8.8353408436070494e-03   9.1809234465508836e-03   9.2502170021708276e-03   9.5850354453940034e-03   9.6633383876153188e-03   9.9862164028574757e-03   1.0073729246360021e-02   1.0383526770708659e-02   1.0480422986039821e-02   1.0776039844983780e-02   1.0882464892965293e-02   1.1162844489405268e-02   1.1278914744885134e-02   1.1543047780186362e-02   1.1668849528974781e-02   1.1915777742033017e-02   1.2051366063157844e-02   1.2280185951432845e-02   1.2425583710108641e-02   1.2635450310874877e-02   1.2790646996836080e-02   1.2980777663904514e-02   1.3145728304441334e-02   1.3315406562968271e-02   1.3490030469724797e-02   1.3638609930518278e-02   1.3822789486123527e-02   1.3949697803173173e-02   1.4143277063052032e-02   1.4248020104957054e-02   1.4450803355046690e-02   1.4532969521657960e-02   1.4744719556390798e-02   1.4803984468605385e-02   1.5024420722049446e-02   1.5060552360784303e-02   1.5289348539079473e-02   1.5302213225521489e-02   1.5538994479376350e-02   1.5528564081727101e-02   1.5772903229299688e-02   1.5739264340505845e-02   1.5990676864697354e-02   1.5934043243206256e-02   1.6191980124662584e-02   1.6112710439638429e-02   1.6376547777249079e-02   1.6275172400977651e-02   1.6544195505031140e-02   1.6421459046720197e-02   1.6694837589740677e-02   1.6551769744966780e-02   1.6828517830149985e-02   1.6666555786749929e-02   1.6945469387562081e-02   1.6766668206497561e-02   1.7046243864335387e-02   1.6853583233954559e-02   1.7132023701825389e-02   1.6931330228177478e-02   1.7205459007800083e-02   1.0049695370597697e-02   1.7392000530670949e-02   1.6789485854453494e-02   1.6430125866717063e-02   1.6759599574068931e-02   1.6759599587203529e-02   1.6707299861197816e-02   1.6715185805411235e-02   1.6634894743069291e-02   1.6649008135462277e-02   1.6542206311493172e-02   1.6562204033473967e-02   1.6429234257678144e-02   1.6455135578964612e-02   1.6296165017966126e-02   1.6327998419536013e-02   1.6143325031510256e-02   1.6181049563795003e-02   1.5971137961214216e-02   1.6014648739470110e-02   1.5780096578423514e-02   1.5829244769302100e-02   1.5570746014832959e-02   1.5625355146937133e-02   1.5343674007912606e-02   1.5403550525658919e-02   1.5099505287526750e-02   1.5164444710504783e-02   1.4838898181067978e-02   1.4908688521081693e-02   1.4562542559905542e-02   1.4636966037165791e-02   1.4271158331780574e-02   1.4349992215109028e-02   1.3965494307737606e-02   1.4048511218409032e-02   1.3646327063460442e-02   1.3733295088937156e-02   1.3314459912562885e-02   1.3405142554104568e-02   1.2970721638080239e-02   1.3064877810121805e-02   1.2615965267207149e-02   1.2713349278296272e-02   1.2251066556757688e-02   1.2351428213407390e-02   1.1876922513628938e-02   1.1980007212998890e-02   1.1494449671478701e-02   1.1599998630588654e-02   1.1104582329763201e-02   1.1212332821198219e-02   1.0708270612921246e-02   1.0817956321823198e-02   1.0306478567319035e-02   1.0417829931694071e-02   9.9001819977105002e-03   1.0012926660970761e-02   9.4903664308321426e-03   9.6042296942208238e-03   9.0780248453247066e-03   9.1927301959043271e-03   8.6641555056061782e-03   8.7794251005270663e-03   8.2497596171431219e-03   8.3653148944881524e-03   7.8358390933822939e-03   7.9514013035345849e-03   7.4233941903025661e-03   7.5386850004179112e-03   7.0134211748157822e-03   7.1281632914845430e-03   6.6069100104878533e-03   6.7208277814454487e-03   6.2048420173346228e-03   6.3176620331873400e-03   5.8081875409265902e-03   5.9196392764473988e-03   5.4179036777834569e-03   5.5277200904821399e-03   5.0349319782157283e-03   5.1428501342373652e-03   4.6601962261896010e-03   4.7659579079484147e-03   4.2946002074639635e-03   4.3979525279162516e-03   3.9390255963610210e-03   4.0397215654644127e-03   3.5943297965889804e-03   3.6921289223199897e-03   3.2613439450578036e-03   3.3560127791370741e-03   2.9408708613923949e-03   3.0321835847388103e-03   2.6336831801407282e-03   2.7214221004272666e-03   2.3405214522779234e-03   2.4244775491847944e-03   2.0620924166268664e-03   2.1420658108497969e-03   1.7990672461720098e-03   1.8748677137567190e-03   1.5520799976648477e-03   1.6235273745177792e-03   1.3217260423605641e-03   1.3886506869951270e-03   1.1085606635854021e-03   1.1708038501794774e-03   9.1309770751989074e-04   9.7051200753210578e-04   7.3580836722461087e-04   7.8825799211576899e-04   5.7712002959091921e-04   6.2448116286253420e-04   4.3741527057130334e-04   4.7957635397185135e-04   3.1703091445768388e-04   3.5389292408884572e-04   2.1625725097503939e-04   2.4773391913880048e-04   1.3533731735611483e-04   1.6135534718905188e-04   7.4466331791599391e-05   9.4965561268293869e-05   3.3791214719638204e-05   4.8724763893941805e-05   1.3410248980570768e-05   2.2744622851900137e-05   1.3372838546134395e-05   1.7088006789665211e-05   3.3679398381249979e-05   3.1768837258957394e-05   7.4281357616416002e-05   6.6752057297227171e-05   1.3508127747867429e-04   1.2195372310848028e-04   2.1593309816654314e-04   1.9724121105741264e-04   3.1664248694962733e-04   2.9243353628204968e-04   4.3696732494648272e-04   4.0730180186208047e-04   5.7661828359992044e-04   5.4156975489660583e-04   7.3525954506624489e-04   6.9491445138582849e-04   9.1250959966934363e-04   8.6696705696523283e-04   1.1079422052990458e-03   1.0573137269324158e-03   1.3210873928477084e-03   1.2654966264402175e-03   1.5514326376353375e-03   1.4910150422555381e-03   1.7984240853104220e-03   1.7333265963145135e-03   2.0614679312149441e-03   1.9918485685561172e-03   2.3399318438817067e-03   2.2659593265490262e-03   2.6331465256442493e-03   2.5549998326277038e-03   2.9404073330627722e-03   2.8582752503760545e-03   3.2609760391976673e-03   3.1750566511376185e-03   3.5940825951487391e-03   3.5045828033831439e-03   3.9389270629082776e-03   3.8460620229093128e-03   4.2946815455306622e-03   4.1986741358972443e-03   4.6604922809929204e-03   4.5615724717337205e-03   5.0354816872873239e-03   4.9338859816033254e-03   5.4187506118001253e-03   5.3147213694868436e-03   5.8093804928634760e-03   5.7031653156560730e-03   6.2064357182212773e-03   6.0982867414086225e-03   6.6089659103433403e-03   6.4991391465794432e-03   7.0160083637779928e-03   6.9047629759758557e-03   7.4265904484789678e-03   7.3141880277238554e-03   7.8397321115066948e-03   7.7264359047222297e-03   8.2544483472293262e-03   8.1405225443217915e-03   8.6697517678078033e-03   8.5554606893723240e-03   9.0846551489157448e-03   8.9702624706338250e-03   9.4981740452901031e-03   9.3839419599873238e-03   9.9093293164629614e-03   9.7955177723209677e-03   1.0317149844956634e-02   1.0204015673154604e-02   1.0720675093422212e-02   1.0608471172713361e-02   1.1118957757874554e-02   1.1007932167825798e-02   1.1511066422345463e-02   1.1401461560040758e-02   1.1896088135280626e-02   1.1788139869580747e-02   1.2273131097330680e-02   1.2167067877764596e-02   1.2641327256374955e-02   1.2537369198312861e-02   1.2999834887724774e-02   1.2898192901546472e-02   1.3347841207568789e-02   1.3248716082927867e-02   1.3684564911283397e-02   1.3588146424093507e-02   1.4009258747948264e-02   1.3915724710758640e-02   1.4321211998442405e-02   1.4230727367276274e-02   1.4619752994542590e-02   1.4532468929099722e-02   1.4904251574663475e-02   1.4820304526007591e-02   1.5174121601819484e-02   1.5093632333202064e-02   1.5428823380245321e-02   1.5351896091998706e-02   1.5667866284969689e-02   1.5594587686944881e-02   1.5890811411571733e-02   1.5821249901511573e-02   1.6097274553950082e-02   1.6031479548115703e-02   1.6286929591814461e-02   1.6224931310535633e-02   1.6459512737708498e-02   1.6401322867051506e-02   1.6614828245624554e-02   1.6560442637758285e-02   1.6752757049943324e-02   1.6702162750973158e-02   1.6873272299192169e-02   1.6826463126656525e-02   1.6976475460132007e-02   1.6933480017760866e-02   1.7062705777680078e-02   1.7023608467531724e-02   1.7132938598077185e-02   1.7097713938478736e-02   1.7190357897331813e-02   1.7157493033919606e-02   1.6931330261221806e-02   1.7205459109134486e-02   1.6751590796406150e-02   1.6387677500025340e-02   1.6715185837288180e-02   1.6707299909933648e-02   1.6656423164026036e-02   1.6656423168115608e-02   1.6576853212574020e-02   1.6583857993772703e-02   1.6477009454017533e-02   1.6490391109114412e-02   1.6357133065661663e-02   1.6376541914088549e-02   1.6217474011374834e-02   1.6242732831748628e-02   1.6058355619297915e-02   1.6089358003347234e-02   1.5880180940984048e-02   1.5916831747741889e-02   1.5683423345895078e-02   1.5725613299861125e-02   1.5468615069004783e-02   1.5516213874760834e-02   1.5236337754943768e-02   1.5289194922189440e-02   1.4987215530911735e-02   1.5045163518818723e-02   1.4721910145075165e-02   1.4784767553489323e-02   1.4441117533189281e-02   1.4508691683712332e-02   1.4145565336303753e-02   1.4217654137457058e-02   1.3836010980367757e-02   1.3912404224714091e-02   1.3513240009488416e-02   1.3593720253189169e-02   1.3178064633648290e-02   1.3262407794203644e-02   1.2831322204333766e-02   1.2919298014056502e-02   1.2473873774910825e-02   1.2565246126485140e-02   1.2106602504112574e-02   1.2201129754197968e-02   1.1730412014702554e-02   1.1827847298718941e-02   1.1346224657362462e-02   1.1446316209237627e-02   1.0954979684335663e-02   1.1057471164934477e-02   1.0557631306121673e-02   1.0662262211804593e-02   1.0155146738099965e-02   1.0261652785916446e-02   9.7485040707759422e-03   9.8566176495004498e-03   9.3386901946655530e-03   9.4481408396683390e-03   8.9266985615210712e-03   9.0372134654236325e-03   8.5135269854504231e-03   8.6248315281616146e-03   8.1001753623161765e-03   8.2119936553691104e-03   7.6876433830634118e-03   7.7996988416776476e-03   7.2769282078081242e-03   7.3889441637601319e-03   6.8690221816160094e-03   6.9807224359746496e-03   6.4649104694777170e-03   6.5760199344038839e-03   6.0655687725398554e-03   6.1758140669633107e-03   5.6719610246014048e-03   5.7810710939125848e-03   5.2850370859554843e-03   5.3927438335710943e-03   4.9057305105525062e-03   5.0117694080130245e-03   4.5349563492152597e-03   4.6390670263707946e-03   4.1736089225250230e-03   4.2755357974215988e-03   3.8225597234480702e-03   3.9220525925512404e-03   3.4826553116220800e-03   3.5794699328033836e-03   3.1547153130378511e-03   3.2486139840859421e-03   2.8395304540372998e-03   2.9302825671572502e-03   2.5378606404489064e-03   2.6252432376823597e-03   2.2504331682000225e-03   2.3342314667445050e-03   1.9779409776101184e-03   2.0579488625924124e-03   1.7210409656553041e-03   1.7970615083762842e-03   1.4803524387210685e-03   1.5521983498720173e-03   1.2564556114871765e-03   1.3239496777798449e-03   1.0498902174214959e-03   1.1128657395363974e-03   8.6115421236072735e-04   9.1945539239021950e-04   6.9070258088117006e-04   7.4418490136381719e-04   5.3894623802892220e-04   5.8747679701962637e-04   4.0625105669016802e-04   4.4970889108385519e-04   2.9293697648646833e-04   3.3121334066663798e-04   1.9927723810597963e-04   2.3227587554404503e-04   1.2549773439195545e-04   1.5313509316877030e-04   7.1776464930116201e-05   9.3981901683264614e-05   3.8243112796695791e-05   5.4959056372452049e-05   2.4978731722073673e-05   3.6160819443481426e-05   3.2015558239119438e-05   3.7632736615931773e-05   5.9336936123734440e-05   5.9371532390759792e-05   1.0687736075225790e-04   1.0132511850035896e-04   1.7452264197128324e-04   1.6339272546144048e-04   2.6211018199422229e-04   2.4542515010220249e-04   3.6942937261742813e-04   3.4722511642103259e-04   4.9622210908822374e-04   4.6854775928404871e-04   6.4218341828239088e-04   6.0910121502594987e-04   8.0696220253714931e-04   7.6854733947925228e-04   9.9016208490281259e-04   9.4650251933313368e-04   1.1913423842293688e-03   1.1425386109180896e-03   1.4100191778650694e-03   1.3561839708962600e-03   1.6456664879228593e-03   1.5869246235629764e-03   1.8977175449979621e-03   1.8342054861002642e-03   2.1655661848616801e-03   2.0974317317085174e-03   2.4485683240082347e-03   2.3759702279697609e-03   2.7460435215585751e-03   2.6691510996437219e-03   3.0572766411130731e-03   2.9762693325427691e-03   3.3815196018722646e-03   3.2965865230648551e-03   3.7179932086681697e-03   3.6293326457088604e-03   4.0658890641074134e-03   3.9737079834968559e-03   4.4243715454105317e-03   4.3288850503006900e-03   4.7925798587928579e-03   4.6940106256725478e-03   5.1696301644428046e-03   5.0682078748709412e-03   5.5546177795462223e-03   5.4505784961244802e-03   5.9466193701978708e-03   5.8402049355290317e-03   6.3446952830798920e-03   6.2361526692024504e-03   6.7478918922896647e-03   6.6374725219887493e-03   7.1552439760088861e-03   7.0432030544848303e-03   7.5657771226285211e-03   7.4523729419978136e-03   7.9785102343472112e-03   7.8640034498248593e-03   8.3924579887749429e-03   8.2771108947436080e-03   8.8066333952511230e-03   8.6907091756417386e-03   9.2200502827830561e-03   9.1038122690972247e-03   9.6317259209957491e-03   9.5154368034519269e-03   1.0040683557505996e-02   9.9246046166949001e-03   1.0445955016002826e-02   1.0330345347629827e-02   1.0846583288311664e-02   1.0731698983669739e-02   1.1241625112234897e-02   1.1127718480346539e-02   1.1630153577193804e-02   1.1517472313373823e-02   1.2011260703282640e-02   1.1900047098913701e-02   1.2384059991610427e-02   1.2274550114747899e-02   1.2747688979570907e-02   1.2640111884369067e-02   1.3101311760715367e-02   1.2995888694745163e-02   1.3444121519299149e-02   1.3341065128723162e-02   1.3775342907254717e-02   1.3674856509160381e-02   1.4094234541733286e-02   1.3996511370262850e-02   1.4400091312675207e-02   1.4305313866027066e-02   1.4692246713788437e-02   1.4600586137763095e-02   1.4970075054653456e-02   1.4881690632182415e-02   1.5232993650649266e-02   1.5148032433065629e-02   1.5480464903319160e-02   1.5399061517806290e-02   1.5711998358629724e-02   1.5634275144357807e-02   1.5927152722275358e-02   1.5853220283303503e-02   1.6125538047863729e-02   1.6055496435101888e-02   1.6306818242724216e-02   1.6240759115376500e-02   1.6470714577744169e-02   1.6408724747713092e-02   1.6617011690953046e-02   1.6559178338400749e-02   1.6745569899672023e-02   1.6691986831622024e-02   1.6856353856835298e-02   1.6807123690633564e-02   1.6949504194853932e-02   1.6904714990224029e-02   1.7025518747689893e-02   1.6985122400226888e-02   1.7085685987688358e-02   1.7049069072346046e-02   1.7132938683454921e-02   1.7097714034309045e-02   1.6853583344553079e-02   1.7132023897363895e-02   1.6693134293336246e-02   1.6324669419722177e-02   1.6649008212847014e-02   1.6634894826058094e-02   1.6583858033687476e-02   1.6576853251342161e-02   1.6497653719226166e-02   1.6497653715966423e-02   1.6391117671650694e-02   1.6397659476703720e-02   1.6264626237995603e-02   1.6277368708323508e-02   1.6118529491389651e-02   1.6137233236488080e-02   1.5953215640229276e-02   1.5977705076074981e-02   1.5769123604582141e-02   1.5799257646361625e-02   1.5566743881817828e-02   1.5602394620887632e-02   1.5346616018195163e-02   1.5387655031329387e-02   1.5109324950988663e-02   1.5155615810348428e-02   1.4855497182325737e-02   1.4906892201956609e-02   1.4585797307466919e-02   1.4642136697642995e-02   1.430092