<?xml version="1.0"?>
<VTKFile type="UnstructuredGrid"  version="0.1"  >
<UnstructuredGrid>
<Piece  NumberOfPoints="16641" NumberOfCells="32768">
<Points>
<DataArray  type="Float64"  NumberOfComponents="3"  format="ascii">0 0 0  0.0078125 0 0  0.015625 0 0  0.0234375 0 0  0.03125 0 0  0.0390625 0 0  0.046875 0 0  0.0546875 0 0  0.0625 0 0  0.0703125 0 0  0.078125 0 0  0.0859375 0 0  0.09375 0 0  0.1015625 0 0  0.109375 0 0  0.1171875 0 0  0.125 0 0  0.1328125 0 0  0.140625 0 0  0.1484375 0 0  0.15625 0 0  0.1640625 0 0  0.171875 0 0  0.1796875 0 0  0.1875 0 0  0.1953125 0 0  0.203125 0 0  0.2109375 0 0  0.21875 0 0  0.2265625 0 0  0.234375 0 0  0.2421875 0 0  0.25 0 0  0.2578125 0 0  0.265625 0 0  0.2734375 0 0  0.28125 0 0  0.2890625 0 0  0.296875 0 0  0.3046875 0 0  0.3125 0 0  0.3203125 0 0  0.328125 0 0  0.3359375 0 0  0.34375 0 0  0.3515625 0 0  0.359375 0 0  0.3671875 0 0  0.375 0 0  0.3828125 0 0  0.390625 0 0  0.3984375 0 0  0.40625 0 0  0.4140625 0 0  0.421875 0 0  0.4296875 0 0  0.4375 0 0  0.4453125 0 0  0.453125 0 0  0.4609375 0 0  0.46875 0 0  0.4765625 0 0  0.484375 0 0  0.4921875 0 0  0.5 0 0  0.5078125 0 0  0.515625 0 0  0.5234375 0 0  0.53125 0 0  0.5390625 0 0  0.546875 0 0  0.5546875 0 0  0.5625 0 0  0.5703125 0 0  0.578125 0 0  0.5859375 0 0  0.59375 0 0  0.6015625 0 0  0.609375 0 0  0.6171875 0 0  0.625 0 0  0.6328125 0 0  0.640625 0 0  0.6484375 0 0  0.65625 0 0  0.6640625 0 0  0.671875 0 0  0.6796875 0 0  0.6875 0 0  0.6953125 0 0  0.703125 0 0  0.7109375 0 0  0.71875 0 0  0.7265625 0 0  0.734375 0 0  0.7421875 0 0  0.75 0 0  0.7578125 0 0  0.765625 0 0  0.7734375 0 0  0.78125 0 0  0.7890625 0 0  0.796875 0 0  0.8046875 0 0  0.8125 0 0  0.8203125 0 0  0.828125 0 0  0.8359375 0 0  0.84375 0 0  0.8515625 0 0  0.859375 0 0  0.8671875 0 0  0.875 0 0  0.8828125 0 0  0.890625 0 0  0.8984375 0 0  0.90625 0 0  0.9140625 0 0  0.921875 0 0  0.9296875 0 0  0.9375 0 0  0.9453125 0 0  0.953125 0 0  0.9609375 0 0  0.96875 0 0  0.9765625 0 0  0.984375 0 0  0.9921875 0 0  1 0 0  0 0.0078125 0  0.0078125 0.0078125 0  0.015625 0.0078125 0  0.0234375 0.0078125 0  0.03125 0.0078125 0  0.0390625 0.0078125 0  0.046875 0.0078125 0  0.0546875 0.0078125 0  0.0625 0.0078125 0  0.0703125 0.0078125 0  0.078125 0.0078125 0  0.0859375 0.0078125 0  0.09375 0.0078125 0  0.1015625 0.0078125 0  0.109375 0.0078125 0  0.1171875 0.0078125 0  0.125 0.0078125 0  0.1328125 0.0078125 0  0.140625 0.0078125 0  0.1484375 0.0078125 0  0.15625 0.0078125 0  0.1640625 0.0078125 0  0.171875 0.0078125 0  0.1796875 0.0078125 0  0.1875 0.0078125 0  0.1953125 0.0078125 0  0.203125 0.0078125 0  0.2109375 0.0078125 0  0.21875 0.0078125 0  0.2265625 0.0078125 0  0.234375 0.0078125 0  0.2421875 0.0078125 0  0.25 0.0078125 0  0.2578125 0.0078125 0  0.265625 0.0078125 0  0.2734375 0.0078125 0  0.28125 0.0078125 0  0.2890625 0.0078125 0  0.296875 0.0078125 0  0.3046875 0.0078125 0  0.3125 0.0078125 0  0.3203125 0.0078125 0  0.328125 0.0078125 0  0.3359375 0.0078125 0  0.34375 0.0078125 0  0.3515625 0.0078125 0  0.359375 0.0078125 0  0.3671875 0.0078125 0  0.375 0.0078125 0  0.3828125 0.0078125 0  0.390625 0.0078125 0  0.3984375 0.0078125 0  0.40625 0.0078125 0  0.4140625 0.0078125 0  0.421875 0.0078125 0  0.4296875 0.0078125 0  0.4375 0.0078125 0  0.4453125 0.0078125 0  0.453125 0.0078125 0  0.4609375 0.0078125 0  0.46875 0.0078125 0  0.4765625 0.0078125 0  0.484375 0.0078125 0  0.4921875 0.0078125 0  0.5 0.0078125 0  0.5078125 0.0078125 0  0.515625 0.0078125 0  0.5234375 0.0078125 0  0.53125 0.0078125 0  0.5390625 0.0078125 0  0.546875 0.0078125 0  0.5546875 0.0078125 0  0.5625 0.0078125 0  0.5703125 0.0078125 0  0.578125 0.0078125 0  0.5859375 0.0078125 0  0.59375 0.0078125 0  0.6015625 0.0078125 0  0.609375 0.0078125 0  0.6171875 0.0078125 0  0.625 0.0078125 0  0.6328125 0.0078125 0  0.640625 0.0078125 0  0.6484375 0.0078125 0  0.65625 0.0078125 0  0.6640625 0.0078125 0  0.671875 0.0078125 0  0.6796875 0.0078125 0  0.6875 0.0078125 0  0.6953125 0.0078125 0  0.703125 0.0078125 0  0.7109375 0.0078125 0  0.71875 0.0078125 0  0.7265625 0.0078125 0  0.734375 0.0078125 0  0.7421875 0.0078125 0  0.75 0.0078125 0  0.7578125 0.0078125 0  0.765625 0.0078125 0  0.7734375 0.0078125 0  0.78125 0.0078125 0  0.7890625 0.0078125 0  0.796875 0.0078125 0  0.8046875 0.0078125 0  0.8125 0.0078125 0  0.8203125 0.0078125 0  0.828125 0.0078125 0  0.8359375 0.0078125 0  0.84375 0.0078125 0  0.8515625 0.0078125 0  0.859375 0.0078125 0  0.8671875 0.0078125 0  0.875 0.0078125 0  0.8828125 0.0078125 0  0.890625 0.0078125 0  0.8984375 0.0078125 0  0.90625 0.0078125 0  0.9140625 0.0078125 0  0.921875 0.0078125 0  0.9296875 0.0078125 0  0.9375 0.0078125 0  0.9453125 0.0078125 0  0.953125 0.0078125 0  0.9609375 0.0078125 0  0.96875 0.0078125 0  0.9765625 0.0078125 0  0.984375 0.0078125 0  0.9921875 0.0078125 0  1 0.0078125 0  0 0.015625 0  0.0078125 0.015625 0  0.015625 0.015625 0  0.0234375 0.015625 0  0.03125 0.015625 0  0.0390625 0.015625 0  0.046875 0.015625 0  0.0546875 0.015625 0  0.0625 0.015625 0  0.0703125 0.015625 0  0.078125 0.015625 0  0.0859375 0.015625 0  0.09375 0.015625 0  0.1015625 0.015625 0  0.109375 0.015625 0  0.1171875 0.015625 0  0.125 0.015625 0  0.1328125 0.015625 0  0.140625 0.015625 0  0.1484375 0.015625 0  0.15625 0.015625 0  0.1640625 0.015625 0  0.171875 0.015625 0  0.1796875 0.015625 0  0.1875 0.015625 0  0.1953125 0.015625 0  0.203125 0.015625 0  0.2109375 0.015625 0  0.21875 0.015625 0  0.2265625 0.015625 0  0.234375 0.015625 0  0.2421875 0.015625 0  0.25 0.015625 0  0.2578125 0.015625 0  0.265625 0.015625 0  0.2734375 0.015625 0  0.28125 0.015625 0  0.2890625 0.015625 0  0.296875 0.015625 0  0.3046875 0.015625 0  0.3125 0.015625 0  0.3203125 0.015625 0  0.328125 0.015625 0  0.3359375 0.015625 0  0.34375 0.015625 0  0.3515625 0.015625 0  0.359375 0.015625 0  0.3671875 0.015625 0  0.375 0.015625 0  0.3828125 0.015625 0  0.390625 0.015625 0  0.3984375 0.015625 0  0.40625 0.015625 0  0.4140625 0.015625 0  0.421875 0.015625 0  0.4296875 0.015625 0  0.4375 0.015625 0  0.4453125 0.015625 0  0.453125 0.015625 0  0.4609375 0.015625 0  0.46875 0.015625 0  0.4765625 0.015625 0  0.484375 0.015625 0  0.4921875 0.015625 0  0.5 0.015625 0  0.5078125 0.015625 0  0.515625 0.015625 0  0.5234375 0.015625 0  0.53125 0.015625 0  0.5390625 0.015625 0  0.546875 0.015625 0  0.5546875 0.015625 0  0.5625 0.015625 0  0.5703125 0.015625 0  0.578125 0.015625 0  0.5859375 0.015625 0  0.59375 0.015625 0  0.6015625 0.015625 0  0.609375 0.015625 0  0.6171875 0.015625 0  0.625 0.015625 0  0.6328125 0.015625 0  0.640625 0.015625 0  0.6484375 0.015625 0  0.65625 0.015625 0  0.6640625 0.015625 0  0.671875 0.015625 0  0.6796875 0.015625 0  0.6875 0.015625 0  0.6953125 0.015625 0  0.703125 0.015625 0  0.7109375 0.015625 0  0.71875 0.015625 0  0.7265625 0.015625 0  0.734375 0.015625 0  0.7421875 0.015625 0  0.75 0.015625 0  0.7578125 0.015625 0  0.765625 0.015625 0  0.7734375 0.015625 0  0.78125 0.015625 0  0.7890625 0.015625 0  0.796875 0.015625 0  0.8046875 0.015625 0  0.8125 0.015625 0  0.8203125 0.015625 0  0.828125 0.015625 0  0.8359375 0.015625 0  0.84375 0.015625 0  0.8515625 0.015625 0  0.859375 0.015625 0  0.8671875 0.015625 0  0.875 0.015625 0  0.8828125 0.015625 0  0.890625 0.015625 0  0.8984375 0.015625 0  0.90625 0.015625 0  0.9140625 0.015625 0  0.921875 0.015625 0  0.9296875 0.015625 0  0.9375 0.015625 0  0.9453125 0.015625 0  0.953125 0.015625 0  0.9609375 0.015625 0  0.96875 0.015625 0  0.9765625 0.015625 0  0.984375 0.015625 0  0.9921875 0.015625 0  1 0.015625 0  0 0.0234375 0  0.0078125 0.0234375 0  0.015625 0.0234375 0  0.0234375 0.0234375 0  0.03125 0.0234375 0  0.0390625 0.0234375 0  0.046875 0.0234375 0  0.0546875 0.0234375 0  0.0625 0.0234375 0  0.0703125 0.0234375 0  0.078125 0.0234375 0  0.0859375 0.0234375 0  0.09375 0.0234375 0  0.1015625 0.0234375 0  0.109375 0.0234375 0  0.1171875 0.0234375 0  0.125 0.0234375 0  0.1328125 0.0234375 0  0.140625 0.0234375 0  0.1484375 0.0234375 0  0.15625 0.0234375 0  0.1640625 0.0234375 0  0.171875 0.0234375 0  0.1796875 0.0234375 0  0.1875 0.0234375 0  0.1953125 0.0234375 0  0.203125 0.0234375 0  0.2109375 0.0234375 0  0.21875 0.0234375 0  0.2265625 0.0234375 0  0.234375 0.0234375 0  0.2421875 0.0234375 0  0.25 0.0234375 0  0.2578125 0.0234375 0  0.265625 0.0234375 0  0.2734375 0.0234375 0  0.28125 0.0234375 0  0.2890625 0.0234375 0  0.296875 0.0234375 0  0.3046875 0.0234375 0  0.3125 0.0234375 0  0.3203125 0.0234375 0  0.328125 0.0234375 0  0.3359375 0.0234375 0  0.34375 0.0234375 0  0.3515625 0.0234375 0  0.359375 0.0234375 0  0.3671875 0.0234375 0  0.375 0.0234375 0  0.3828125 0.0234375 0  0.390625 0.0234375 0  0.3984375 0.0234375 0  0.40625 0.0234375 0  0.4140625 0.0234375 0  0.421875 0.0234375 0  0.4296875 0.0234375 0  0.4375 0.0234375 0  0.4453125 0.0234375 0  0.453125 0.0234375 0  0.4609375 0.0234375 0  0.46875 0.0234375 0  0.4765625 0.0234375 0  0.484375 0.0234375 0  0.4921875 0.0234375 0  0.5 0.0234375 0  0.5078125 0.0234375 0  0.515625 0.0234375 0  0.5234375 0.0234375 0  0.53125 0.0234375 0  0.5390625 0.0234375 0  0.546875 0.0234375 0  0.5546875 0.0234375 0  0.5625 0.0234375 0  0.5703125 0.0234375 0  0.578125 0.0234375 0  0.5859375 0.0234375 0  0.59375 0.0234375 0  0.6015625 0.0234375 0  0.609375 0.0234375 0  0.6171875 0.0234375 0  0.625 0.0234375 0  0.6328125 0.0234375 0  0.640625 0.0234375 0  0.6484375 0.0234375 0  0.65625 0.0234375 0  0.6640625 0.0234375 0  0.671875 0.0234375 0  0.6796875 0.0234375 0  0.6875 0.0234375 0  0.6953125 0.0234375 0  0.703125 0.0234375 0  0.7109375 0.0234375 0  0.71875 0.0234375 0  0.7265625 0.0234375 0  0.734375 0.0234375 0  0.7421875 0.0234375 0  0.75 0.0234375 0  0.7578125 0.0234375 0  0.765625 0.0234375 0  0.7734375 0.0234375 0  0.78125 0.0234375 0  0.7890625 0.0234375 0  0.796875 0.0234375 0  0.8046875 0.0234375 0  0.8125 0.0234375 0  0.8203125 0.0234375 0  0.828125 0.0234375 0  0.8359375 0.0234375 0  0.84375 0.0234375 0  0.8515625 0.0234375 0  0.859375 0.0234375 0  0.8671
[...]
<CellData  Scalars="f_162361"> 
<DataArray  type="Float64"  Name="f_162361"  format="ascii">4.3481186792078194e-13   4.3481048180469904e-13   4.3499207761682821e-13   5.4860470846537193e-13   4.3506043167923132e-13   5.4869880848883813e-13   4.3501537761962865e-13   5.4865012698860627e-13   4.3485653880991714e-13   5.4845800476307694e-13   4.3458411665891413e-13   5.4812262278057313e-13   4.3419869774055764e-13   5.4764468253417463e-13   4.3370118588903369e-13   5.4702529761017046e-13   4.3309277456995949e-13   5.4626595149180079e-13   4.3237493316946860e-13   5.4536847766132463e-13   4.3154939840959429e-13   5.4433504777742401e-13   4.3061816764846688e-13   5.4316816282109668e-13   4.2958349276672734e-13   5.4187064523413212e-13   4.2844787403736684e-13   5.4044563113121425e-13   4.2721405375094911e-13   5.3889656225923914e-13   4.2588500944429764e-13   5.3722717747601482e-13   4.2446394666857032e-13   5.3544150366371687e-13   4.2295429126584756e-13   5.3354384602213384e-13   4.2135968116446405e-13   5.3153877775404825e-13   4.1968395769823588e-13   5.2943112916001827e-13   4.1793115642437610e-13   5.2722597609630609e-13   4.1610549749171904e-13   5.2492862785675123e-13   4.1421137558034898e-13   5.2254461451924577e-13   4.1225334941637157e-13   5.2007967376038650e-13   4.1023613086965683e-13   5.1753973713399367e-13   4.0816457370248589e-13   5.1493091590269159e-13   4.0604366198300772e-13   5.1225948645655930e-13   4.0387849815571564e-13   5.0953187530151160e-13   4.0167429081949119e-13   5.0675464365104548e-13   3.9943634228350730e-13   5.0393447176278103e-13   3.9717003586121302e-13   5.0107814293255114e-13   3.9488082296706683e-13   4.9819252723064900e-13   3.9257421005519648e-13   4.9528456505032030e-13   3.9025574541422440e-13   4.9236125045933167e-13   3.8793100586113365e-13   4.8942961443000467e-13   3.8560558336354030e-13   4.8649670797676852e-13   3.8328507160589747e-13   4.8356958521941761e-13   3.8097505256340442e-13   4.8065528644505573e-13   3.7868108310775322e-13   4.7776082122235505e-13   3.7640868164601590e-13   4.7489315155128779e-13   3.7416331486020260e-13   4.7205917512483343e-13   3.7195038457629061e-13   4.6926570877269723e-13   3.6977521476756260e-13   4.6651947205567173e-13   3.6764303876707886e-13   4.6382707112343399e-13   3.6555898667816126e-13   4.6119498283306216e-13   3.6352807302330543e-13   4.5862953915088566e-13   3.6155518468999857e-13   4.5613691192740497e-13   3.5964506918394390e-13   4.5372309807151058e-13   3.5780232318416415e-13   4.5139390509316973e-13   3.5603138149271924e-13   4.4915493713527503e-13   3.5433650636997889e-13   4.4701158150514396e-13   3.5272177725531758e-13   4.4496899568285113e-13   3.5119108095242067e-13   4.4303209490318896e-13   3.4974810228350091e-13   4.4120554035855903e-13   3.4839631519880166e-13   4.3949372792773642e-13   3.4713897443645038e-13   4.3790077764708941e-13   3.4597910765659967e-13   4.3643052373371430e-13   3.4491950817697325e-13   4.3508650540166410e-13   3.4396272822706557e-13   4.3387195830578401e-13   3.4311107281408698e-13   4.3278980677350895e-13   3.4236659416083663e-13   4.3184265674021394e-13   3.4173108677025739e-13   4.3103278949315179e-13   3.4120608309373664e-13   4.3036215615642830e-13   3.4079284985298494e-13   4.2983237301111263e-13   3.4049238497747815e-13   4.2944471759330513e-13   3.4030541519712520e-13   4.2920012561020428e-13   3.4023239429739871e-13   4.2909918868742322e-13   3.4027350201571882e-13   4.2914215294405183e-13   3.4042864360091238e-13   4.2932891838068115e-13   3.4069745004486520e-13   4.2965903913279219e-13   3.4107927895622714e-13   4.3013172452255158e-13   3.4157321610241480e-13   4.3074584096050997e-13   3.4217807759545119e-13   4.3149991465377720e-13   3.4289241273338443e-13   4.3239213515072463e-13   3.4371450747119640e-13   4.3342035966421568e-13   3.4464238854168848e-13   4.3458211823611507e-13   3.4567382817067383e-13   4.3587461962945539e-13   3.4680634942570020e-13   4.3729475804628906e-13   3.4803723213490808e-13   4.3883912053455162e-13   3.4936351941952743e-13   4.4050399520366378e-13   3.5078202475068704e-13   4.4228538006956887e-13   3.5228933959364111e-13   4.4417899267207961e-13   3.5388184154909550e-13   4.4618028029666504e-13   3.5555570300711146e-13   4.4828443086150564e-13   3.5730690029432241e-13   4.5048638441336693e-13   3.5913122328657776e-13   4.5278084523075457e-13   3.6102428543910102e-13   4.5516229443360264e-13   3.6298153425499122e-13   4.5762500317129958e-13   3.6499826211157617e-13   4.6016304623628204e-13   3.6706961748027741e-13   4.6277031621352258e-13   3.6919061643627083e-13   4.6544053795714935e-13   3.7135615450344353e-13   4.6816728352587039e-13   3.7356101874690419e-13   4.7094398740994878e-13   3.7579990012034808e-13   4.7376396210256633e-13   3.7806740599686379e-13   4.7662041388848019e-13   3.8035807290298881e-13   4.7950645890464656e-13   3.8266637936710060e-13   4.8241513934206569e-13   3.8498675887993170e-13   4.8533943979909763e-13   3.8731361291688985e-13   4.8827230371080757e-13   3.8964132400577677e-13   4.9120664985160425e-13   3.9196426876203200e-13   4.9413538878816832e-13   3.9427683089439645e-13   4.9705143932242612e-13   3.9657341410165092e-13   4.9994774478562449e-13   3.9884845484088468e-13   5.0281728920450675e-13   4.0109643488912379e-13   5.0565311319284116e-13   4.0331189369625230e-13   5.0844832962905211e-13   4.0548944038489291e-13   5.1119613888626370e-13   4.0762376540637672e-13   5.1388984367451387e-13   4.0970965171772685e-13   5.1652286330768981e-13   4.1174198539121577e-13   5.1908874732932718e-13   4.1371576550684541e-13   5.2158118828609084e-13   4.1562611318030829e-13   5.2399403354892917e-13   4.1746827943349189e-13   5.2632129581405207e-13   4.1923765161219096e-13   5.2855716203516559e-13   4.2092975779318890e-13   5.3069600017187117e-13   4.2254026845415796e-13   5.3273236308676564e-13   4.2406499415363720e-13   5.3466098835911131e-13   4.2549987725307367e-13   5.3647679221474281e-13   4.2684097426275446e-13   5.3817485449631803e-13   4.2808442271551452e-13   5.3975038948186337e-13   4.2922638091843942e-13   5.4119869309740025e-13   4.3026291698883745e-13   5.4251504867616474e-13   4.3118979539011643e-13   5.4369455532210569e-13   4.3200203679138591e-13   5.4473180146938010e-13   4.3269292285751368e-13   5.4562020420113135e-13   4.3325148310925033e-13   5.4635056352499776e-13   4.3365534001612583e-13   5.4690759998187399e-13   3.2052985513695348e-13   5.4726081788125750e-13   5.4806212719780294e-13   4.3444593642716604e-13   5.4824128253267988e-13   5.4823829677984608e-13   5.4827694066083909e-13   5.4827342401676640e-13   5.4816909560786508e-13   5.4816470641152150e-13   5.4791787803128286e-13   5.4791257112752974e-13   5.4752379508963136e-13   5.4751758850613728e-13   5.4698774575309993e-13   5.4698066809895286e-13   5.4631100202910635e-13   5.4630308221665977e-13   5.4549519178154460e-13   5.4548645786035637e-13   5.4454228631511267e-13   5.4453276595058118e-13   5.4345459089614176e-13   5.4344431195331633e-13   5.4223473661547959e-13   5.4222372759260529e-13   5.4088567260247663e-13   5.4087396291538064e-13   5.3941065816176232e-13   5.3939827831463027e-13   5.3781325451169950e-13   5.3780023619390739e-13   5.3609731600823925e-13   5.3608369213204268e-13   5.3426698079694229e-13   5.3425278550551665e-13   5.3232666085198471e-13   5.3231192949196320e-13   5.3028103142519026e-13   5.3026580050512000e-13   5.2813501985212432e-13   5.2811932698481967e-13   5.2589379380538340e-13   5.2587767764548329e-13   5.2356274894713440e-13   5.2354624910903316e-13   5.2114749606973657e-13   5.2113065304400829e-13   5.1865384768130603e-13   5.1863670275532480e-13   5.1608780413822185e-13   5.1607039930199635e-13   5.1345553930110709e-13   5.1343791714824622e-13   5.1076338578043739e-13   5.1074558941449468e-13   5.0801781978606961e-13   5.0799989273180165e-13   5.0522544563652549e-13   5.0520743172476184e-13   5.0239297994572403e-13   5.0237492322232063e-13   4.9952723553334024e-13   4.9950918015786097e-13   4.9663510510005143e-13   4.9661709523857331e-13   4.9372354471894724e-13   4.9370562445185524e-13   4.9079955713080623e-13   4.9078177034105532e-13   4.8787017497715198e-13   4.8785256525817786e-13   4.8494244389485097e-13   4.8492505444802673e-13   4.8202340562488132e-13   4.8200627916606078e-13   4.7912008109241404e-13   4.7910325974479781e-13   4.7623945354587255e-13   4.7622297874927657e-13   4.7338845179160876e-13   4.7337236421492361e-13   4.7057393352810946e-13   4.7055827296537963e-13   4.6780266887238054e-13   4.6778747416152797e-13   4.6508132409640861e-13   4.6506663303112345e-13   4.6241644556727252e-13   4.6240229480434462e-13   4.5981444403549139e-13   4.5980086902374914e-13   4.5728157919672855e-13   4.5726861408975767e-13   4.5482394464670935e-13   4.5481162222710599e-13   4.5244745319660716e-13   4.5243580480301447e-13   4.5015782268597403e-13   4.5014687814549657e-13   4.4796056218777301e-13   4.4795034974339839e-13   4.4586095874664109e-13   4.4585150499563899e-13   4.4386406467766839e-13   4.4385539451880375e-13   4.4197468539488084e-13   4.4196682195941116e-13   4.4019736783625732e-13   4.4019033245284007e-13   4.3853638952746174e-13   4.3853020165415990e-13   4.3699574825680044e-13   4.3699042545352695e-13   4.3557915249204705e-13   4.3557471036977397e-13   4.3429001240655572e-13   4.3428646459983023e-13   4.3313143170758735e-13   4.3312878983708199e-13   4.3210620012634204e-13   4.3210447377821269e-13   4.3121678672200565e-13   4.3121598341874565e-13   4.3046533392538434e-13   4.3046545911434631e-13   4.2985365238790848e-13   4.2985470942542704e-13   4.2938321659735270e-13   4.2938520673728926e-13   4.2905516136015009e-13   4.2905808375497188e-13   4.2887027904480720e-13   4.2887413074661145e-13   4.2882901764336294e-13   4.2883379359993515e-13   4.2893147974490450e-13   4.2893717282644806e-13   4.2917742224487809e-13   4.2918402324801929e-13   4.2956625692880829e-13   4.2957375460134690e-13   4.3009705188863986e-13   4.3010543295296779e-13   4.3076853374052536e-13   4.3077778292349527e-13   4.3157909069512814e-13   4.3158919076416710e-13   4.3252677640461930e-13   4.3253770820897612e-13   4.3360931464691791e-13   4.3362105715868363e-13   4.3482410476244846e-13   4.3483663513191506e-13   4.3616822791108570e-13   4.3618152151634454e-13   4.3763845404409854e-13   4.3765248455849847e-13   4.3923124966461992e-13   4.3924598911211001e-13   4.4094278626004690e-13   4.4095820509580349e-13   4.4276894949991605e-13   4.4278501667432190e-13   4.4470534906869982e-13   4.4472203212092254e-13   4.4674732914180991e-13   4.4676459427370265e-13   4.4888997955437351e-13   4.4890779173186373e-13   4.5112814750981584e-13   4.5114647055326538e-13   4.5345644987660730e-13   4.5347524656656779e-13   4.5586928605188468e-13   4.5588851823620103e-13   4.5836085127524246e-13   4.5838047998837032e-13   4.6092515049622230e-13   4.6094513607069298e-13   4.6355601261291663e-13   4.6357631482246014e-13   4.6624710513820999e-13   4.6626768331776247e-13   4.6899194923939503e-13   4.6901276243809264e-13   4.7178393510041517e-13   4.7180494222901983e-13   4.7461633755189777e-13   4.7463749754614555e-13   4.7748233199580009e-13   4.7750360398880577e-13   4.8037501046449972e-13   4.8039635396768507e-13   4.8328739790208727e-13   4.8330877300531725e-13   4.8621246852337636e-13   4.8623383610524468e-13   4.8914316228500996e-13   4.8916448424559922e-13   4.9207240131617352e-13   4.9209364082969969e-13   4.9499310639039974e-13   4.9501422817952924e-13   4.9789821328706670e-13   4.9791918393879753e-13   5.0078068902525562e-13   5.0080147733412061e-13   5.0363354790788704e-13   5.0365412527729457e-13   5.0644986735284474e-13   5.0647020824093132e-13   5.0922280334377153e-13   5.0924288580234347e-13   5.1194560556422693e-13   5.1196541186314673e-13   5.1461163199702023e-13   5.1463114937861748e-13   5.1721436297288636e-13   5.1723358456539619e-13   5.1974741451685647e-13   5.1976634048498971e-13   5.2220455082251110e-13   5.2222318979251551e-13   5.2457969566436927e-13   5.2459806658195719e-13   5.2686694250663415e-13   5.2688507705158379e-13   5.2906056286321367e-13   5.2907850869398777e-13   5.3115501244839500e-13   5.3117283762070442e-13   5.3314493427872626e-13   5.3316273344073058e-13   5.3502515758591630e-13   5.3504306086100357e-13   5.3679069066637324e-13   5.3680887676508435e-13   5.3843670476983410e-13   5.3845542093359899e-13   5.3995850422490626e-13   5.3997809759656968e-13   5.4135147499287420e-13   5.4137244373647556e-13   5.4261099888422294e-13   5.4263407850728004e-13   5.4373231448541913e-13   5.4375862817462782e-13   5.4471030638648913e-13   5.4474163033496870e-13   5.4553925865442481e-13   5.4557847266962897e-13   5.4621295248072136e-13   5.4626465020453272e-13   5.4672725107169322e-13   5.4679759195926835e-13   4.3367856696042918e-13   5.4718539710066610e-13   5.4730593641060242e-13   4.3366416531835462e-13   5.4742609449680383e-13   5.4742231868255098e-13   5.4740204685717749e-13   5.4739787929198004e-13   5.4723442764393118e-13   5.4722966259191316e-13   5.4692380419554754e-13   5.4691835788940969e-13   5.4647096097458489e-13   5.4646481362499010e-13   5.4587699473452575e-13   5.4587015340833669e-13   5.4514333941930322e-13   5.4513582162004071e-13   5.4427176848305187e-13   5.4426359588441194e-13   5.4326439038278578e-13   5.4325558664174844e-13   5.4212364212161661e-13   5.4211423217676643e-13   5.4085228216026457e-13   5.4084229203979374e-13   5.3945338290822886e-13   5.3944283968513470e-13   5.3793032282542436e-13   5.3791925461470590e-13   5.3628677796807155e-13   5.3627521391858272e-13   5.3452671298919399e-13   5.3451468326329510e-13   5.3265437153881647e-13   5.3264190728639181e-13   5.3067426607074204e-13   5.3066139937788110e-13   5.2859116703992620e-13   5.2857793088223519e-13   5.2641009147657752e-13   5.2639651965178304e-13   5.2413629101139927e-13   5.2412241807946709e-13   5.2177523935438747e-13   5.2176110055750117e-13   5.1933261919607993e-13   5.1931825037938737e-13   5.1681430866724304e-13   5.1679974621379232e-13   5.1422636725447830e-13   5.1421164799148302e-13   5.1157502137032671e-13   5.1156018248475619e-13   5.0886664942617235e-13   5.0885172838093898e-13   5.0610776657288524e-13   5.0609280103281165e-13   5.0330500913580712e-13   5.0329003685855152e-13   5.0046511870799635e-13   5.0045017747476147e-13   4.9759492598184170e-13   4.9758005350514939e-13   4.9470133442162924e-13   4.9468656825555261e-13   4.9179130366774126e-13   4.9177668113057626e-13   4.8887183288403175e-13   4.8885739096018102e-13   4.8594994395077409e-13   4.8593571921917206e-13   4.8303266460743975e-13   4.8301869314741260e-13   4.8012701158637728e-13   4.8011332890946516e-13   4.7723997376182329e-13   4.7722661471534674e-13   4.7437849537638893e-13   4.7436549407222153e-13   4.7154945932984428e-13   4.7153684907756541e-13   4.6875967066385504e-13   4.6874748387714921e-13   4.6601584019993084e-13   4.6600410833772115e-13   4.6332456839103805e-13   4.6331332188668662e-13   4.6069232947745319e-13   4.6068159766128427e-13   4.5812545587712490e-13   4.5811526692087280e-13   4.5563012298617096e-13   4.5562050383393167e-13   4.5321233432158872e-13   4.5320331063348206e-13   4.5087790705633938e-13   4.5086950314908047e-13   4.4863245802800229e-13   4.4862469682432958e-13   4.4648139023919459e-13   4.4647429321484542e-13   4.4442987981970636e-13   4.4442346695096867e-13   4.4248286359580069e-13   4.4247715332707453e-13   4.4064502719887584e-13   4.4064003638436161e-13   4.3892079376701164e-13   4.3891653765199962e-13   4.3731431332134834e-13   4.3731080549089553e-13   4.3582945275463605e-13   4.3582670511800463e-13   4.3446978652963166e-13   4.3446780928236805e-13   4.3323858807220706e-13   4.3323738967955951e-13   4.3213882187195840e-13   4.3213840904226171e-13   4.3117313636723766e-13   4.3117351404629978e-13   4.3034385754748844e-13   4.3034502889766468e-13   4.2965298335590965e-13   4.2965494975278268e-13   4.2910217888237034e-13   4.2910493991369186e-13   4.2869277234602513e-13   4.2869632580101485e-13   4.2842575189035659e-13   4.2843009377616067e-13   4.2830176318941087e-13   4.2830688773804620e-13   4.2832110793948769e-13   4.2832700760808369e-13   4.2848374305627415e-13   4.2849040855931092e-13   4.2878928082431725e-13   4.2879670114124360e-13   4.2923698979797426e-13   4.2924515220460046e-13   4.2982579655474746e-13   4.2983468665147069e-13   4.3055428827718094e-13   4.3056389001914479e-13   4.3142071613576606e-13   4.3143101187367614e-13   4.3242299947239277e-13   4.3243396999203095e-13   4.3355873080955823e-13   4.3357035537849666e-13   4.3482518160036008e-13   4.3483743801583039e-13   4.3621930878557120e-13   4.3623217342925075e-13   4.3773776206599365e-13   4.3775120996547970e-13   4.3937689195459198e-13   4.3939089684371847e-13   4.4113275848901942e-13   4.4114729287726250e-13   4.4300114069696959e-13   4.4301617593735000e-13   4.4497754664375413e-13   4.4499305301839250e-13   4.4705722423187877e-13   4.4707317102336030e-13   4.4923517251942207e-13   4.4925152810606674e-13   4.5150615369268946e-13   4.5152288563573122e-13   4.5386470554170978e-13   4.5388178068032757e-13   4.5630515452431639e-13   4.5632253908750477e-13   4.5882162925763794e-13   4.5883928896208079e-13   4.6140807453295522e-13   4.6142597469799868e-13   4.6405826567574100e-13   4.6407637135464988e-13   4.6676582339643592e-13   4.6678409949569549e-13   4.6952422888692131e-13   4.6954264030652622e-13   4.7232683930404856e-13   4.7234535108237264e-13   4.7516690347717357e-13   4.7518548094230702e-13   4.7803757787573305e-13   4.7805618681848356e-13   4.8093194274099007e-13   4.8095054958308189e-13   4.8384301837429482e-13   4.8386159036908951e-13   4.8676378153043826e-13   4.8678228696359456e-13   4.8968718185812850e-13   4.8970559028515793e-13   4.9260615834454396e-13   4.9262444083529049e-13   4.9551365575055857e-13   4.9553178517091338e-13   4.9840264089766343e-13   4.9842059222241021e-13   5.0126611889300473e-13   5.0128386956084811e-13   5.0409714907267360e-13   5.0411467939095947e-13   5.0688886076701807e-13   5.0690615438110790e-13   5.0963446869944088e-13   5.0965151314558783e-13   5.1232728801530621e-13   5.1234407537714907e-13   5.1496074882928486e-13   5.1497727652268061e-13   5.1752841025801733e-13   5.1754468199374706e-13   5.2002397371503037e-13   5.2004000070574801e-13   5.2244129549154617e-13   5.2245709794665451e-13   5.2477439832861888e-13   5.2479000739027426e-13   5.2701748184791211e-13   5.2703294209459007e-13   5.2916493154280988e-13   5.2918030431399675e-13   5.3121132599590150e-13   5.3122669385592169e-13   5.3315144182589886e-13   5.3316691469350807e-13   5.3498025573045682e-13   5.3499597942672818e-13   5.3669294282229987e-13   5.3670911122586704e-13   5.3828487026676055e-13   5.3830174287726825e-13   5.3975158532018966e-13   5.3976951296146404e-13   5.4108879792348604e-13   5.4110826053578008e-13   5.4229236208724460e-13   5.4231402346373319e-13   5.4335827361650461e-13   5.4338305599209019e-13   5.4428274204455567e-13   5.4431190889256995e-13   5.4506251078204335e-13   5.4509768729913228e-13   5.4569591036298096e-13   5.4573877511428396e-13   5.4618583365437901e-13   5.4623666950904555e-13   4.3307865415854752e-13   5.4659987195645360e-13   5.4610368985520976e-13   4.3246652073858418e-13   5.4616362565156714e-13   5.4615952444067222e-13   5.4607989813037741e-13   5.4607539948428692e-13   5.4585308985048148e-13   5.4584812327834055e-13   5.4548395553176537e-13   5.4547847126366540e-13   5.4497348540438108e-13   5.4496746303849236e-13   5.4432295880448089e-13   5.4431639797689493e-13   5.4353397069464636e-13   5.4352688228280197e-13   5.4260844080905663e-13   5.4260084166528949e-13   5.4154861408047341e-13   5.4154052432240714e-13   5.4035705694937166e-13   5.4034849867454582e-13   5.3903665158031672e-13   5.3902764827689770e-13   5.3759058897224545e-13   5.3758116523771982e-13   5.3602236115144551e-13   5.3601254255723333e-13   5.343357