<?xml version="1.0"?>
<VTKFile type="UnstructuredGrid"  version="0.1"  >
<UnstructuredGrid>
<Piece  NumberOfPoints="16641" NumberOfCells="32768">
<Points>
<DataArray  type="Float64"  NumberOfComponents="3"  format="ascii">0 0 0  0.0078125 0 0  0.015625 0 0  0.0234375 0 0  0.03125 0 0  0.0390625 0 0  0.046875 0 0  0.0546875 0 0  0.0625 0 0  0.0703125 0 0  0.078125 0 0  0.0859375 0 0  0.09375 0 0  0.1015625 0 0  0.109375 0 0  0.1171875 0 0  0.125 0 0  0.1328125 0 0  0.140625 0 0  0.1484375 0 0  0.15625 0 0  0.1640625 0 0  0.171875 0 0  0.1796875 0 0  0.1875 0 0  0.1953125 0 0  0.203125 0 0  0.2109375 0 0  0.21875 0 0  0.2265625 0 0  0.234375 0 0  0.2421875 0 0  0.25 0 0  0.2578125 0 0  0.265625 0 0  0.2734375 0 0  0.28125 0 0  0.2890625 0 0  0.296875 0 0  0.3046875 0 0  0.3125 0 0  0.3203125 0 0  0.328125 0 0  0.3359375 0 0  0.34375 0 0  0.3515625 0 0  0.359375 0 0  0.3671875 0 0  0.375 0 0  0.3828125 0 0  0.390625 0 0  0.3984375 0 0  0.40625 0 0  0.4140625 0 0  0.421875 0 0  0.4296875 0 0  0.4375 0 0  0.4453125 0 0  0.453125 0 0  0.4609375 0 0  0.46875 0 0  0.4765625 0 0  0.484375 0 0  0.4921875 0 0  0.5 0 0  0.5078125 0 0  0.515625 0 0  0.5234375 0 0  0.53125 0 0  0.5390625 0 0  0.546875 0 0  0.5546875 0 0  0.5625 0 0  0.5703125 0 0  0.578125 0 0  0.5859375 0 0  0.59375 0 0  0.6015625 0 0  0.609375 0 0  0.6171875 0 0  0.625 0 0  0.6328125 0 0  0.640625 0 0  0.6484375 0 0  0.65625 0 0  0.6640625 0 0  0.671875 0 0  0.6796875 0 0  0.6875 0 0  0.6953125 0 0  0.703125 0 0  0.7109375 0 0  0.71875 0 0  0.7265625 0 0  0.734375 0 0  0.7421875 0 0  0.75 0 0  0.7578125 0 0  0.765625 0 0  0.7734375 0 0  0.78125 0 0  0.7890625 0 0  0.796875 0 0  0.8046875 0 0  0.8125 0 0  0.8203125 0 0  0.828125 0 0  0.8359375 0 0  0.84375 0 0  0.8515625 0 0  0.859375 0 0  0.8671875 0 0  0.875 0 0  0.8828125 0 0  0.890625 0 0  0.8984375 0 0  0.90625 0 0  0.9140625 0 0  0.921875 0 0  0.9296875 0 0  0.9375 0 0  0.9453125 0 0  0.953125 0 0  0.9609375 0 0  0.96875 0 0  0.9765625 0 0  0.984375 0 0  0.9921875 0 0  1 0 0  0 0.0078125 0  0.0078125 0.0078125 0  0.015625 0.0078125 0  0.0234375 0.0078125 0  0.03125 0.0078125 0  0.0390625 0.0078125 0  0.046875 0.0078125 0  0.0546875 0.0078125 0  0.0625 0.0078125 0  0.0703125 0.0078125 0  0.078125 0.0078125 0  0.0859375 0.0078125 0  0.09375 0.0078125 0  0.1015625 0.0078125 0  0.109375 0.0078125 0  0.1171875 0.0078125 0  0.125 0.0078125 0  0.1328125 0.0078125 0  0.140625 0.0078125 0  0.1484375 0.0078125 0  0.15625 0.0078125 0  0.1640625 0.0078125 0  0.171875 0.0078125 0  0.1796875 0.0078125 0  0.1875 0.0078125 0  0.1953125 0.0078125 0  0.203125 0.0078125 0  0.2109375 0.0078125 0  0.21875 0.0078125 0  0.2265625 0.0078125 0  0.234375 0.0078125 0  0.2421875 0.0078125 0  0.25 0.0078125 0  0.2578125 0.0078125 0  0.265625 0.0078125 0  0.2734375 0.0078125 0  0.28125 0.0078125 0  0.2890625 0.0078125 0  0.296875 0.0078125 0  0.3046875 0.0078125 0  0.3125 0.0078125 0  0.3203125 0.0078125 0  0.328125 0.0078125 0  0.3359375 0.0078125 0  0.34375 0.0078125 0  0.3515625 0.0078125 0  0.359375 0.0078125 0  0.3671875 0.0078125 0  0.375 0.0078125 0  0.3828125 0.0078125 0  0.390625 0.0078125 0  0.3984375 0.0078125 0  0.40625 0.0078125 0  0.4140625 0.0078125 0  0.421875 0.0078125 0  0.4296875 0.0078125 0  0.4375 0.0078125 0  0.4453125 0.0078125 0  0.453125 0.0078125 0  0.4609375 0.0078125 0  0.46875 0.0078125 0  0.4765625 0.0078125 0  0.484375 0.0078125 0  0.4921875 0.0078125 0  0.5 0.0078125 0  0.5078125 0.0078125 0  0.515625 0.0078125 0  0.5234375 0.0078125 0  0.53125 0.0078125 0  0.5390625 0.0078125 0  0.546875 0.0078125 0  0.5546875 0.0078125 0  0.5625 0.0078125 0  0.5703125 0.0078125 0  0.578125 0.0078125 0  0.5859375 0.0078125 0  0.59375 0.0078125 0  0.6015625 0.0078125 0  0.609375 0.0078125 0  0.6171875 0.0078125 0  0.625 0.0078125 0  0.6328125 0.0078125 0  0.640625 0.0078125 0  0.6484375 0.0078125 0  0.65625 0.0078125 0  0.6640625 0.0078125 0  0.671875 0.0078125 0  0.6796875 0.0078125 0  0.6875 0.0078125 0  0.6953125 0.0078125 0  0.703125 0.0078125 0  0.7109375 0.0078125 0  0.71875 0.0078125 0  0.7265625 0.0078125 0  0.734375 0.0078125 0  0.7421875 0.0078125 0  0.75 0.0078125 0  0.7578125 0.0078125 0  0.765625 0.0078125 0  0.7734375 0.0078125 0  0.78125 0.0078125 0  0.7890625 0.0078125 0  0.796875 0.0078125 0  0.8046875 0.0078125 0  0.8125 0.0078125 0  0.8203125 0.0078125 0  0.828125 0.0078125 0  0.8359375 0.0078125 0  0.84375 0.0078125 0  0.8515625 0.0078125 0  0.859375 0.0078125 0  0.8671875 0.0078125 0  0.875 0.0078125 0  0.8828125 0.0078125 0  0.890625 0.0078125 0  0.8984375 0.0078125 0  0.90625 0.0078125 0  0.9140625 0.0078125 0  0.921875 0.0078125 0  0.9296875 0.0078125 0  0.9375 0.0078125 0  0.9453125 0.0078125 0  0.953125 0.0078125 0  0.9609375 0.0078125 0  0.96875 0.0078125 0  0.9765625 0.0078125 0  0.984375 0.0078125 0  0.9921875 0.0078125 0  1 0.0078125 0  0 0.015625 0  0.0078125 0.015625 0  0.015625 0.015625 0  0.0234375 0.015625 0  0.03125 0.015625 0  0.0390625 0.015625 0  0.046875 0.015625 0  0.0546875 0.015625 0  0.0625 0.015625 0  0.0703125 0.015625 0  0.078125 0.015625 0  0.0859375 0.015625 0  0.09375 0.015625 0  0.1015625 0.015625 0  0.109375 0.015625 0  0.1171875 0.015625 0  0.125 0.015625 0  0.1328125 0.015625 0  0.140625 0.015625 0  0.1484375 0.015625 0  0.15625 0.015625 0  0.1640625 0.015625 0  0.171875 0.015625 0  0.1796875 0.015625 0  0.1875 0.015625 0  0.1953125 0.015625 0  0.203125 0.015625 0  0.2109375 0.015625 0  0.21875 0.015625 0  0.2265625 0.015625 0  0.234375 0.015625 0  0.2421875 0.015625 0  0.25 0.015625 0  0.2578125 0.015625 0  0.265625 0.015625 0  0.2734375 0.015625 0  0.28125 0.015625 0  0.2890625 0.015625 0  0.296875 0.015625 0  0.3046875 0.015625 0  0.3125 0.015625 0  0.3203125 0.015625 0  0.328125 0.015625 0  0.3359375 0.015625 0  0.34375 0.015625 0  0.3515625 0.015625 0  0.359375 0.015625 0  0.3671875 0.015625 0  0.375 0.015625 0  0.3828125 0.015625 0  0.390625 0.015625 0  0.3984375 0.015625 0  0.40625 0.015625 0  0.4140625 0.015625 0  0.421875 0.015625 0  0.4296875 0.015625 0  0.4375 0.015625 0  0.4453125 0.015625 0  0.453125 0.015625 0  0.4609375 0.015625 0  0.46875 0.015625 0  0.4765625 0.015625 0  0.484375 0.015625 0  0.4921875 0.015625 0  0.5 0.015625 0  0.5078125 0.015625 0  0.515625 0.015625 0  0.5234375 0.015625 0  0.53125 0.015625 0  0.5390625 0.015625 0  0.546875 0.015625 0  0.5546875 0.015625 0  0.5625 0.015625 0  0.5703125 0.015625 0  0.578125 0.015625 0  0.5859375 0.015625 0  0.59375 0.015625 0  0.6015625 0.015625 0  0.609375 0.015625 0  0.6171875 0.015625 0  0.625 0.015625 0  0.6328125 0.015625 0  0.640625 0.015625 0  0.6484375 0.015625 0  0.65625 0.015625 0  0.6640625 0.015625 0  0.671875 0.015625 0  0.6796875 0.015625 0  0.6875 0.015625 0  0.6953125 0.015625 0  0.703125 0.015625 0  0.7109375 0.015625 0  0.71875 0.015625 0  0.7265625 0.015625 0  0.734375 0.015625 0  0.7421875 0.015625 0  0.75 0.015625 0  0.7578125 0.015625 0  0.765625 0.015625 0  0.7734375 0.015625 0  0.78125 0.015625 0  0.7890625 0.015625 0  0.796875 0.015625 0  0.8046875 0.015625 0  0.8125 0.015625 0  0.8203125 0.015625 0  0.828125 0.015625 0  0.8359375 0.015625 0  0.84375 0.015625 0  0.8515625 0.015625 0  0.859375 0.015625 0  0.8671875 0.015625 0  0.875 0.015625 0  0.8828125 0.015625 0  0.890625 0.015625 0  0.8984375 0.015625 0  0.90625 0.015625 0  0.9140625 0.015625 0  0.921875 0.015625 0  0.9296875 0.015625 0  0.9375 0.015625 0  0.9453125 0.015625 0  0.953125 0.015625 0  0.9609375 0.015625 0  0.96875 0.015625 0  0.9765625 0.015625 0  0.984375 0.015625 0  0.9921875 0.015625 0  1 0.015625 0  0 0.0234375 0  0.0078125 0.0234375 0  0.015625 0.0234375 0  0.0234375 0.0234375 0  0.03125 0.0234375 0  0.0390625 0.0234375 0  0.046875 0.0234375 0  0.0546875 0.0234375 0  0.0625 0.0234375 0  0.0703125 0.0234375 0  0.078125 0.0234375 0  0.0859375 0.0234375 0  0.09375 0.0234375 0  0.1015625 0.0234375 0  0.109375 0.0234375 0  0.1171875 0.0234375 0  0.125 0.0234375 0  0.1328125 0.0234375 0  0.140625 0.0234375 0  0.1484375 0.0234375 0  0.15625 0.0234375 0  0.1640625 0.0234375 0  0.171875 0.0234375 0  0.1796875 0.0234375 0  0.1875 0.0234375 0  0.1953125 0.0234375 0  0.203125 0.0234375 0  0.2109375 0.0234375 0  0.21875 0.0234375 0  0.2265625 0.0234375 0  0.234375 0.0234375 0  0.2421875 0.0234375 0  0.25 0.0234375 0  0.2578125 0.0234375 0  0.265625 0.0234375 0  0.2734375 0.0234375 0  0.28125 0.0234375 0  0.2890625 0.0234375 0  0.296875 0.0234375 0  0.3046875 0.0234375 0  0.3125 0.0234375 0  0.3203125 0.0234375 0  0.328125 0.0234375 0  0.3359375 0.0234375 0  0.34375 0.0234375 0  0.3515625 0.0234375 0  0.359375 0.0234375 0  0.3671875 0.0234375 0  0.375 0.0234375 0  0.3828125 0.0234375 0  0.390625 0.0234375 0  0.3984375 0.0234375 0  0.40625 0.0234375 0  0.4140625 0.0234375 0  0.421875 0.0234375 0  0.4296875 0.0234375 0  0.4375 0.0234375 0  0.4453125 0.0234375 0  0.453125 0.0234375 0  0.4609375 0.0234375 0  0.46875 0.0234375 0  0.4765625 0.0234375 0  0.484375 0.0234375 0  0.4921875 0.0234375 0  0.5 0.0234375 0  0.5078125 0.0234375 0  0.515625 0.0234375 0  0.5234375 0.0234375 0  0.53125 0.0234375 0  0.5390625 0.0234375 0  0.546875 0.0234375 0  0.5546875 0.0234375 0  0.5625 0.0234375 0  0.5703125 0.0234375 0  0.578125 0.0234375 0  0.5859375 0.0234375 0  0.59375 0.0234375 0  0.6015625 0.0234375 0  0.609375 0.0234375 0  0.6171875 0.0234375 0  0.625 0.0234375 0  0.6328125 0.0234375 0  0.640625 0.0234375 0  0.6484375 0.0234375 0  0.65625 0.0234375 0  0.6640625 0.0234375 0  0.671875 0.0234375 0  0.6796875 0.0234375 0  0.6875 0.0234375 0  0.6953125 0.0234375 0  0.703125 0.0234375 0  0.7109375 0.0234375 0  0.71875 0.0234375 0  0.7265625 0.0234375 0  0.734375 0.0234375 0  0.7421875 0.0234375 0  0.75 0.0234375 0  0.7578125 0.0234375 0  0.765625 0.0234375 0  0.7734375 0.0234375 0  0.78125 0.0234375 0  0.7890625 0.0234375 0  0.796875 0.0234375 0  0.8046875 0.0234375 0  0.8125 0.0234375 0  0.8203125 0.0234375 0  0.828125 0.0234375 0  0.8359375 0.0234375 0  0.84375 0.0234375 0  0.8515625 0.0234375 0  0.859375 0.0234375 0  0.8671
[...]
<CellData  Scalars="f_145512"> 
<DataArray  type="Float64"  Name="f_145512"  format="ascii">6.1092314063599429e-07   4.6361704489907538e-07   6.6486376600656243e-07   4.8135420748924726e-07   7.5470362964597251e-07   5.3528964664560736e-07   8.8020398864618293e-07   6.2526825599299865e-07   1.0410476544737815e-06   7.5105655838890487e-07   1.2368364324007270e-06   9.1233929232197284e-07   1.4670906096184489e-06   1.1087186002753120e-06   1.7312493365885539e-06   1.3397141711697872e-06   2.0286715149320466e-06   1.6047638982466653e-06   2.3586370381850657e-06   1.9032248984035015e-06   2.7203483133441328e-06   2.2343748230170397e-06   3.1129320252735483e-06   2.5974134209926480e-06   3.5354411192817840e-06   2.9914643310341739e-06   3.9868569868357601e-06   3.4155770845421437e-06   4.4660918398640355e-06   3.8687293083601880e-06   4.9719912675558016e-06   4.3498291132161089e-06   5.5033369602412948e-06   4.8577176650065782e-06   6.0588495975541134e-06   5.3911719215607471e-06   6.6371918899199433e-06   5.9489075342508237e-06   7.2369717619363143e-06   6.5295819035164134e-06   7.8567456716416112e-06   7.1317973760987495e-06   8.4950220635534455e-06   7.7541045777529488e-06   9.1502649336858926e-06   8.3950058819728213e-06   9.8208975095112086e-06   9.0529589894847017e-06   1.0505306024223481e-05   9.7263806245415435e-06   1.1201843586135005e-05   1.0413650324684202e-05   1.1908834133015050e-05   1.1113114326259707e-05   1.2624576451626313e-05   1.1823089536261484e-05   1.3347348265671758e-05   1.2541867568362515e-05   1.4075410367665474e-05   1.3267718849083161e-05   1.4807010804269116e-05   1.3998896766357235e-05   1.5540389081273863e-05   1.4733641873890273e-05   1.6273780402050360e-05   1.5470186113345671e-05   1.7005419909005408e-05   1.6206757071793873e-05   1.7733546926671603e-05   1.6941582241512273e-05   1.8456409200978519e-05   1.7672893281230357e-05   1.9172267114680678e-05   1.8398930274241977e-05   1.9879397874653211e-05   1.9117945962268160e-05   2.0576099650856324e-05   1.9828209951674712e-05   2.1260695689157001e-05   2.0528012869488611e-05   2.1931538332816513e-05   2.1215670496180122e-05   2.2587012998764438e-05   2.1889527803886971e-05   2.3225542059147845e-05   2.2547962951234416e-05   2.3845588648358454e-05   2.3189391181797080e-05   2.4445660356476387e-05   2.3812268649019319e-05   2.5024312829878575e-05   2.4415096125918927e-05   2.5580153248376502e-05   2.4996422622491462e-05   2.6111843681903353e-05   2.5554848878743753e-05   2.6618104305274397e-05   2.6089030737217459e-05   2.7097716492522049e-05   2.6597682372175088e-05   2.7549525747278476e-05   2.7079579398952505e-05   2.7972444487538761e-05   2.7533561817968052e-05   2.8365454661453723e-05   2.7958536812981598e-05   2.8727610202170047e-05   2.8353481379340114e-05   2.9058039306855177e-05   2.8717444790804733e-05   2.9355946538825722e-05   2.9049550889830002e-05   2.9620614737239758e-05   2.9349000200287157e-05   2.9851406756195375e-05   2.9615071846639485e-05   3.0047766994217527e-05   2.9847125302271059e-05   3.0209222725712102e-05   3.0044601927085905e-05   3.0335385247965195e-05   3.0207026306126091e-05   3.0425950819679417e-05   3.0334007403153368e-05   3.0480701383827963e-05   3.0425239504879682e-05   3.0499505093026469e-05   3.0480502948435909e-05   3.0482316633995059e-05   3.0499664650668508e-05   3.0429177330487892e-05   3.0482678435607790e-05   3.0340215039782399e-05   3.0429585139358394e-05   3.0215643849712709e-05   3.0340512507878439e-05   3.0055763559208841e-05   3.0215674894181239e-05   2.9860958958803294e-05   3.0055372738264291e-05   2.9631698891135087e-05   2.9859991845954543e-05   2.9368535129811646e-05   2.9630002447079078e-05   2.9072101041575953e-05   2.9365958070805146e-05   2.8743110073958109e-05   2.9068494203865809e-05   2.8382354017162004e-05   2.8738326772572219e-05   2.7990701098062355e-05   2.8376250398962989e-05   2.7569093901464905e-05   2.7983136488246902e-05   2.7118547076571250e-05   2.7559931141569317e-05   2.6640144913011304e-05   2.7107652854936087e-05   2.6135038706115183e-05   2.6627390084872035e-05   2.5604444007768094e-05   2.6120298604868087e-05   2.5049637672422126e-05   2.5587598743909522e-05   2.4471954797028215e-05   2.5030572422166019e-05   2.3872785500059648e-05   2.4450560078011907e-05   2.3253571577044808e-05   2.3848957434381440e-05   2.2615803019371016e-05   2.3227212140237580e-05   2.1961014437788593e-05   2.2586820275975254e-05   2.1290781365394365e-05   2.1929322761647273e-05   2.0606716459125015e-05   2.1256301644423365e-05   1.9910465626413441e-05   2.0569376284931822e-05   1.9203704064513375e-05   1.9870199467272426e-05   1.8488132230613523e-05   1.9160453421684008e-05   1.7765471753924580e-05   1.8441845777631726e-05   1.7037461299703900e-05   1.7716105458610016e-05   1.6305852386654824e-05   1.6984978527991321e-05   1.5572405183869678e-05   1.6250223988989817e-05   1.4838884284529288e-05   1.5513609563136643e-05   1.4107054470224533e-05   1.4776907445538995e-05   1.3378676480188293e-05   1.4041890050906766e-05   1.2655502788760557e-05   1.3310325763870175e-05   1.1939273406427762e-05   1.2583974697805619e-05   1.1231711715367781e-05   1.1864584477312394e-05   1.0534520349441340e-05   1.1153886055220451e-05   9.8493771195499317e-06   1.0453589573129740e-05   9.1779310124277339e-06   9.7653802691624017e-06   8.5217982562400313e-06   9.0909144576088887e-06   7.8825584731162173e-06   8.4318155765400437e-06   7.2617509223656431e-06   7.7896703218069839e-06   6.6608708465769154e-06   7.1660248720928510e-06   6.0813659344381094e-06   6.5623812175846171e-06   5.5246328977985452e-06   5.9801936037038189e-06   4.9920141892390254e-06   5.4208650914675763e-06   4.4847948520363498e-06   4.8857442554929179e-06   4.0041995266046222e-06   4.3761220161679960e-06   3.5513896172250672e-06   3.8932286265992239e-06   3.1274606267451135e-06   3.4382308176445542e-06   2.7334396808837911e-06   3.0122291105054310e-06   2.3702832457665556e-06   2.6162553126625148e-06   2.0388750648788342e-06   2.2512702021040826e-06   1.7400243345931817e-06   1.9181614181115785e-06   1.4744641557157144e-06   1.6177415702269191e-06   1.2428503160968741e-06   1.3507465837399518e-06   1.0457605014690805e-06   1.1178342978737548e-06   8.8369412328590990e-07   9.1958332450392216e-07   7.5707317433821117e-07   7.5649212895818178e-07   6.6624515901050764e-07   6.2897811300325509e-07   6.1149124246873849e-07   5.3737580400239608e-07   5.9305073280820304e-07   4.8193072429343620e-07   4.8115774266622187e-07   3.7064598818525474e-07   5.3542164601265780e-07   3.8851692782147400e-07   6.2580332639591188e-07   4.4278258605896727e-07   7.5207921673817477e-07   5.3329341428712953e-07   9.1393628829902462e-07   6.5981561402718892e-07   1.1109764992227343e-06   8.2203228788447122e-07   1.3427183924904389e-06   1.0195433304571890e-06   1.6085982129737887e-06   1.2518656718227781e-06   1.9079710949661552e-06   1.5184339541581464e-06   2.2401124450432454e-06   1.8186015632568160e-06   2.6042195407426655e-06   2.1516419528786578e-06   2.9994133439234737e-06   2.5167502206681252e-06   3.4247405194021930e-06   2.9130449146834573e-06   3.8791756470968891e-06   3.3395700517868517e-06   4.3616236241880456e-06   3.7952973330255760e-06   4.8709222416409201e-06   4.2791285508180880e-06   5.4058449336286300e-06   4.7898981728751589e-06   5.9651036881091077e-06   5.3263760980567392e-06   6.5473521082309085e-06   5.8872705761345583e-06   7.1511886216828648e-06   6.4712312780311752e-06   7.7751598274115536e-06   7.0768525140247828e-06   8.4177639664451531e-06   7.7026765901609726e-06   9.0774545169981043e-06   8.3471972906296898e-06   9.7526438952034210e-06   9.0088634824487806e-06   1.0441707263775734e-05   9.6860828280951314e-06   1.1142986424292816e-05   1.0377225605083068e-05   1.1854793796328055e-05   1.1080628610002963e-05   1.2575416467504853e-05   1.1794599150683764e-05   1.3303120307576948e-05   1.2517419107259533e-05   1.4036154139731524e-05   1.3247349059797824e-05   1.4772753938004150e-05   1.3982632471761532e-05   1.5511147076351617e-05   1.4721499901062421e-05   1.6249556587990113e-05   1.5462173261063149e-05   1.6986205436157045e-05   1.6202870094564183e-05   1.7719320792553455e-05   1.6941807856709357e-05   1.8447138300660805e-05   1.7677208206834383e-05   1.9167906324434947e-05   1.8407301285467757e-05   1.9879890155790648e-05   1.9130329976347792e-05   2.0581376205090993e-05   1.9844554126654130e-05   2.1270676107235070e-05   2.0548254750525925e-05   2.1946130805525529e-05   2.1239738149344258e-05   2.2606114528499826e-05   2.1917340007029666e-05   2.3249038719742738e-05   2.2579429380373669e-05   2.3873355855701873e-05   2.3224412640799686e-05   2.4477563176695009e-05   2.3850737305199350e-05   2.5060206306835240e-05   2.4456895777881848e-05   2.5619882751836421e-05   2.5041428983142055e-05   2.6155245276752958e-05   2.5602929873815497e-05   2.6665005167631063e-05   2.6140046820006684e-05   2.7147935312444996e-05   2.6651486881439113e-05   2.7602873178887845e-05   2.7136018898652915e-05   2.8028723600501915e-05   2.7592476480531632e-05   2.8424461419156516e-05   2.8019760799777924e-05   2.8789133960203931e-05   2.8416843243882517e-05   2.9121863324093171e-05   2.8782767899012362e-05   2.9421848499635277e-05   2.9116653849233390e-05   2.9688367295128839e-05   2.9417697297179520e-05   2.9920778077058243e-05   2.9685173501577286e-05   3.0118521322051485e-05   2.9918438522504795e-05   3.0281120957434441e-05   3.0116930778695794e-05   3.0408185511583259e-05   3.0280172392925271e-05   3.0499409051753777e-05   3.0407770346954394e-05   3.0554571928070874e-05   3.0499417422977643e-05   3.0573541296684952e-05   3.0554892950645052e-05   3.0556271445608968e-05   3.0574063332741770e-05   3.0502803891263988e-05   3.0556882372848307e-05   3.0413267288796082e-05   3.0503391372984855e-05   3.0287877120044683e-05   3.0413719044512552e-05   3.0126935169166845e-05   3.0288081195894797e-05   2.9930828788766664e-05   3.0126780207534561e-05   2.9700029984826366e-05   2.9930204296484192e-05   2.9435094254981263e-05   2.9698826599276182e-05   2.9136659267316960e-05   2.9433204007460143e-05   2.8805443308384745e-05   2.9133975843126364e-05   2.8442243561144868e-05   2.8801862302533618e-05   2.8047934175551311e-05   2.8437662729891740e-05   2.7623464166096268e-05   2.8042253682802934e-05   2.7169855129201804e-05   2.7616586823226779e-05   2.6688198765682732e-05   2.7161686629526141e-05   2.6179654263532733e-05   2.6678647910791571e-05   2.5645445493491644e-05   2.6168633183544321e-05   2.5086858077900923e-05   2.5632869857666035e-05   2.4505236272716412e-05   2.5072647298100916e-05   2.3901979742302116e-05   2.4489313696935716e-05   2.3278540182308335e-05   2.3884272839070310e-05   2.2636417830521106e-05   2.3258980714842008e-05   2.1977157848801534e-05   2.2614942021184180e-05   2.1302346597967236e-05   2.1953706531625131e-05   2.0613607837016672e-05   2.1276865361118915e-05   1.9912598801710709e-05   2.0586047153431319e-05   1.9201006220910480e-05   1.9882914147579036e-05   1.8480542262825591e-05   1.9169158182442621e-05   1.7752940414233210e-05   1.8446496630452460e-05   1.7019951316586373e-05   1.7716668264462827e-05   1.6283338559768826e-05   1.6981429080590034e-05   1.5544874440911674e-05   1.6242548079528588e-05   1.4806335716123389e-05   1.5501803012124510e-05   1.4069499333208843e-05   1.4760976117633683e-05   1.3336138167976637e-05   1.4021849843419860e-05   1.2608016776894876e-05   1.3286202567724379e-05   1.1886887166329774e-05   1.2555804338943592e-05   1.1174484598820846e-05   1.1832412631744604e-05   1.0472523441447620e-05   1.1117768139899397e-05   9.7826930702874118e-06   1.0413590610923950e-05   9.1066538332951454e-06   9.7215747383164471e-06   8.4460330916356482e-06   9.0433861103459472e-06   7.8024213426961329e-06   8.3806572391265421e-06   7.1773684364826042e-06   7.7349836702464746e-06   6.5723798969753151e-06   7.1079201868533886e-06   5.9889133560901270e-06   6.5009771188349021e-06   5.4283751081080538e-06   5.9156167629804273e-06   4.8921167979304123e-06   5.3532499269867145e-06   4.3814322490857550e-06   4.8152326032432906e-06   3.8975544448215645e-06   4.3028627863242953e-06   3.4416526674014118e-06   3.8173774402323170e-06   3.0148298086934168e-06   3.3599496239160889e-06   2.6181198639209299e-06   2.9316857888034234e-06   2.2524856199511770e-06   2.5336232545445402e-06   1.9188165522198009e-06   2.1667278786313450e-06   1.6179269514486503e-06   1.8318919271936540e-06   1.3505543045733596e-06   1.5299321668358597e-06   1.1173579657256226e-06   1.2615881928366367e-06   9.1891816944354790e-07   1.0275210169903093e-06   7.5573545710266653e-07   8.2831194430295869e-07   6.2823057734194279e-07   6.6446177652452366e-07   5.3674467469601496e-07   5.3639039709341700e-07   4.8153796373015186e-07   4.4443682006876778e-07   4.6277596664415341e-07   3.8885980045254786e-07   3.8784465679995392e-07   3.1422433015114340e-07   4.4226670578296985e-07   3.3215251205568365e-07   5.3297205811743338e-07   3.8658914296602099e-07   6.5973343410098312e-07   4.7738927119914403e-07   8.2223660777634070e-07   6.0432031320782755e-07   1.0200822433988571e-06   7.6706478720971338e-07   1.2527871167117867e-06   9.6522121333723523e-07   1.5197852262565945e-06   1.1983047318931424e-06   1.8204290175492097e-06   1.4657478997323629e-06   2.1539907962158499e-06   1.7669017565872882e-06   2.5196643524493989e-06   2.1010371581856952e-06   2.9165667898290135e-06   2.4673463593645518e-06   3.3437405601644472e-06   2.8649448216560539e-06   3.8001556913951988e-06   3.2928732374549122e-06   4.2847122004810648e-06   3.7500997529632474e-06   4.7962426870229134e-06   4.2355223800345723e-06   5.3335150941800281e-06   4.7479715911815226e-06   5.8952356323067068e-06   5.2862130826183647e-06   6.4800518567815013e-06   5.8489507022109471e-06   7.0865558936422729e-06   6.4348295312587231e-06   7.7132878002226800e-06   7.0424391152754791e-06   8.3587390507879821e-06   7.6703168303156616e-06   9.0213561493112302e-06   8.3169513747011935e-06   9.6995443503293774e-06   8.9807863877825360e-06   1.0391671477682646e-05   9.6602241777928205e-06   1.1096071843499239e-05   1.0353629547166810e-05   1.1811050237908320e-05   1.1059333718557885e-05   1.2534886005214465e-05   1.1775638332287370e-05   1.3265837169931386e-05   1.2500819529423482e-05   1.4002144626059947e-05   1.3233132085909137e-05   1.4742036362560500e-05   1.3970813609509160e-05   1.5483731725123961e-05   1.4712088772696597e-05   1.6225445690737498e-05   1.5455173582865072e-05   1.6965393170615440e-05   1.6198279664808421e-05   1.7701793298562317e-05   1.6939618571346385e-05   1.8432873715473525e-05   1.7677406080037089e-05   1.9156874835148040e-05   1.8409866485686681e-05   1.9872054082217490e-05   1.9135236874325007e-05   2.0576690080825881e-05   1.9851771368626556e-05   2.1269086802256774e-05   2.0557745325104358e-05   2.1947577646806478e-05   2.1251459489257322e-05   2.2610529460260423e-05   2.1931244085397331e-05   2.3256346465649660e-05   2.2595462840271276e-05   2.3883474100895073e-05   2.3242516923013917e-05   2.4490402773080141e-05   2.3870848789715088e-05   2.5075671481699650e-05   2.4478945944872063e-05   2.5637871347448522e-05   2.5065344571835547e-05   2.6175649011427526e-05   2.5628633067936085e-05   2.6687709873580274e-05   2.6167455450708644e-05   2.7172821237571860e-05   2.6680514602450633e-05   2.7629815266701868e-05   2.7166575420891437e-05   2.8057591795712494e-05   2.7624467781566255e-05   2.8455120988781359e-05   2.8053089354413561e-05   2.8821445818865054e-05   2.8451408267227472e-05   2.9155684363607360e-05   2.8818465590146363e-05   2.9457031947102691e-05   2.9153377635742386e-05   2.9724763071536062e-05   2.9455338105290362e-05   2.9958233159893902e-05   2.9723620024147130e-05   3.0156880111843045e-05   2.9957577488201195e-05   3.0320225656510206e-05   3.0156647222872868e-05   3.0447876513184907e-05   3.0320349938510204e-05   3.0539525326046667e-05   3.0448291493860937e-05   3.0594951409692632e-05   3.0540163832685905e-05   3.0614021290002424e-05   3.0595745731003541e-05   3.0596688995652615e-05   3.0614903339263962e-05   3.0542996205975941e-05   3.0597590474769813e-05   3.0453072125681510e-05   3.0543848770024041e-05   3.0327133173391219e-05   3.0453807547591827e-05   3.0165482468576152e-05   3.0327683508327770e-05   2.9968509093637647e-05   3.0165780217639631e-05   2.9736687148347887e-05   2.9968487366518052e-05   2.9470574630459255e-05   2.9736279824492704e-05   2.9170812062465503e-05   2.9469716518434932e-05   2.8838120956967458e-05   2.9169439057013438e-05   2.8473302081166071e-05   2.8836170193451532e-05   2.8077233526758033e-05   2.8470712087122768e-05   2.7650868582633394e-05   2.8073944370192964e-05   2.7195233449344918e-05   2.7646822016210145e-05   2.6711424755467749e-05   2.7190373050960808e-05   2.6200606923768187e-05   2.6705696064218189e-05   2.5664009356296242e-05   2.6193957571425180e-05   2.5102923476128874e-05   2.5656389193344171e-05   2.4518699623728347e-05   2.5094284692843265e-05   2.3912743790644060e-05   2.4508996865590041e-05   2.3286514240288376e-05   2.3901934267647651e-05   2.2641517995662028e-05   2.3274557830246382e-05   2.1979307211151264e-05   2.2628377341201865e-05   2.1301475435145034e-05   2.1964947809711218e-05   2.0609653775726392e-05   2.1285865722773661e-05   1.9905506974395644e-05   2.0592765202950830e-05   1.9190729401326980e-05   1.9887314075592551e-05   1.8467040980738803e-05   1.9171209856399900e-05   1.7736183056446945e-05   1.8446175669154708e-05   1.6999914198974570e-05   1.7713956103787147e-05   1.6260005992471259e-05   1.6976313015620705e-05   1.5518238769819345e-05   1.6235021304342777e-05   1.4776397339609522e-05   1.5491864641526093e-05   1.4036266705314191e-05   1.4748631188992174e-05   1.3299627779343494e-05   1.4007109310379101e-05   1.2568253115841313e-05   1.3269083277140015e-05   1.1843902662105322e-05   1.2536328992993384e-05   1.1128319547984870e-05   1.1810609737923677e-05   1.0423225911420015e-05   1.1093671949111292e-05   9.7303187825068090e-06   1.0387241038543211e-05   9.0512660309558520e-06   9.6930172696164401e-06   8.3877023884914747e-06   9.0126716967560734e-06   7.7412255521479555e-06   8.3478421801622831e-06   7.1133923858612734e-06   7.7001294817474937e-06   6.5057152229556096e-06   7.0710934595902312e-06   5.9196582807853966e-06   6.4622493633715503e-06   5.3566342022275273e-06   5.8750642417206142e-06   4.8180007250014216e-06   5.3109534780089613e-06   4.3050574969940555e-06   4.7712774524559023e-06   3.8190430379891595e-06   4.2573383522018091e-06   3.3611318652109914e-06   3.7703771268767606e-06   2.9324317897180536e-06   3.3115706089310250e-06   2.5339813924892124e-06   2.8820288057800097e-06   2.1667476953936957e-06   2.4827923710605139e-06   1.8316240394298659e-06   2.1148302726753209e-06   1.5294281860008948e-06   1.7790376690056669e-06   1.2609006623497811e-06   1.4762340105002084e-06   1.0267033751494864e-06   1.2071613902158900e-06   8.2741851377220504e-07   9.7248317279256465e-07   6.6354774874425542e-07   7.7278293943870312e-07   5.3551162156871223e-07   6.0856379460232147e-07   4.4364864439342381e-07   4.8024804203220554e-07   3.8821242660754165e-07   3.8817704587335275e-07   3.6936219124220746e-07   3.3261030405990842e-07   3.3106685216091781e-07   2.9439237158319526e-07   3.8552786137771778e-07   3.1231024571821047e-07   4.7635359916060299e-07   3.6676592360115514e-07   6.0331575738502136e-07   4.5761810130314159e-07   7.6609934326678638e-07   5.8463642646393231e-07   9.6430415075385916e-07   7.4750423515340195e-07   1.1974458954586424e-06   9.4582002898092591e-07   1.4649573211819311e-06   1.1790984976183807e-06   1.7661894338293103e-06   1.4467715216893273e-06   2.1004129243255331e-06   1.7481893334900160e-06   2.4668197961919089e-06   2.0826218923212381e-06   2.8645252025743756e-06   2.4492604820790587e-06   3.2925694823099121e-06   2.8472195292138975e-06   3.7499203943750022e-06   3.2755386272219377e-06   4.235475