<?xml version="1.0"?>
<VTKFile type="UnstructuredGrid"  version="0.1"  >
<UnstructuredGrid>
<Piece  NumberOfPoints="16641" NumberOfCells="32768">
<Points>
<DataArray  type="Float64"  NumberOfComponents="3"  format="ascii">0 0 0  0.0078125 0 0  0.015625 0 0  0.0234375 0 0  0.03125 0 0  0.0390625 0 0  0.046875 0 0  0.0546875 0 0  0.0625 0 0  0.0703125 0 0  0.078125 0 0  0.0859375 0 0  0.09375 0 0  0.1015625 0 0  0.109375 0 0  0.1171875 0 0  0.125 0 0  0.1328125 0 0  0.140625 0 0  0.1484375 0 0  0.15625 0 0  0.1640625 0 0  0.171875 0 0  0.1796875 0 0  0.1875 0 0  0.1953125 0 0  0.203125 0 0  0.2109375 0 0  0.21875 0 0  0.2265625 0 0  0.234375 0 0  0.2421875 0 0  0.25 0 0  0.2578125 0 0  0.265625 0 0  0.2734375 0 0  0.28125 0 0  0.2890625 0 0  0.296875 0 0  0.3046875 0 0  0.3125 0 0  0.3203125 0 0  0.328125 0 0  0.3359375 0 0  0.34375 0 0  0.3515625 0 0  0.359375 0 0  0.3671875 0 0  0.375 0 0  0.3828125 0 0  0.390625 0 0  0.3984375 0 0  0.40625 0 0  0.4140625 0 0  0.421875 0 0  0.4296875 0 0  0.4375 0 0  0.4453125 0 0  0.453125 0 0  0.4609375 0 0  0.46875 0 0  0.4765625 0 0  0.484375 0 0  0.4921875 0 0  0.5 0 0  0.5078125 0 0  0.515625 0 0  0.5234375 0 0  0.53125 0 0  0.5390625 0 0  0.546875 0 0  0.5546875 0 0  0.5625 0 0  0.5703125 0 0  0.578125 0 0  0.5859375 0 0  0.59375 0 0  0.6015625 0 0  0.609375 0 0  0.6171875 0 0  0.625 0 0  0.6328125 0 0  0.640625 0 0  0.6484375 0 0  0.65625 0 0  0.6640625 0 0  0.671875 0 0  0.6796875 0 0  0.6875 0 0  0.6953125 0 0  0.703125 0 0  0.7109375 0 0  0.71875 0 0  0.7265625 0 0  0.734375 0 0  0.7421875 0 0  0.75 0 0  0.7578125 0 0  0.765625 0 0  0.7734375 0 0  0.78125 0 0  0.7890625 0 0  0.796875 0 0  0.8046875 0 0  0.8125 0 0  0.8203125 0 0  0.828125 0 0  0.8359375 0 0  0.84375 0 0  0.8515625 0 0  0.859375 0 0  0.8671875 0 0  0.875 0 0  0.8828125 0 0  0.890625 0 0  0.8984375 0 0  0.90625 0 0  0.9140625 0 0  0.921875 0 0  0.9296875 0 0  0.9375 0 0  0.9453125 0 0  0.953125 0 0  0.9609375 0 0  0.96875 0 0  0.9765625 0 0  0.984375 0 0  0.9921875 0 0  1 0 0  0 0.0078125 0  0.0078125 0.0078125 0  0.015625 0.0078125 0  0.0234375 0.0078125 0  0.03125 0.0078125 0  0.0390625 0.0078125 0  0.046875 0.0078125 0  0.0546875 0.0078125 0  0.0625 0.0078125 0  0.0703125 0.0078125 0  0.078125 0.0078125 0  0.0859375 0.0078125 0  0.09375 0.0078125 0  0.1015625 0.0078125 0  0.109375 0.0078125 0  0.1171875 0.0078125 0  0.125 0.0078125 0  0.1328125 0.0078125 0  0.140625 0.0078125 0  0.1484375 0.0078125 0  0.15625 0.0078125 0  0.1640625 0.0078125 0  0.171875 0.0078125 0  0.1796875 0.0078125 0  0.1875 0.0078125 0  0.1953125 0.0078125 0  0.203125 0.0078125 0  0.2109375 0.0078125 0  0.21875 0.0078125 0  0.2265625 0.0078125 0  0.234375 0.0078125 0  0.2421875 0.0078125 0  0.25 0.0078125 0  0.2578125 0.0078125 0  0.265625 0.0078125 0  0.2734375 0.0078125 0  0.28125 0.0078125 0  0.2890625 0.0078125 0  0.296875 0.0078125 0  0.3046875 0.0078125 0  0.3125 0.0078125 0  0.3203125 0.0078125 0  0.328125 0.0078125 0  0.3359375 0.0078125 0  0.34375 0.0078125 0  0.3515625 0.0078125 0  0.359375 0.0078125 0  0.3671875 0.0078125 0  0.375 0.0078125 0  0.3828125 0.0078125 0  0.390625 0.0078125 0  0.3984375 0.0078125 0  0.40625 0.0078125 0  0.4140625 0.0078125 0  0.421875 0.0078125 0  0.4296875 0.0078125 0  0.4375 0.0078125 0  0.4453125 0.0078125 0  0.453125 0.0078125 0  0.4609375 0.0078125 0  0.46875 0.0078125 0  0.4765625 0.0078125 0  0.484375 0.0078125 0  0.4921875 0.0078125 0  0.5 0.0078125 0  0.5078125 0.0078125 0  0.515625 0.0078125 0  0.5234375 0.0078125 0  0.53125 0.0078125 0  0.5390625 0.0078125 0  0.546875 0.0078125 0  0.5546875 0.0078125 0  0.5625 0.0078125 0  0.5703125 0.0078125 0  0.578125 0.0078125 0  0.5859375 0.0078125 0  0.59375 0.0078125 0  0.6015625 0.0078125 0  0.609375 0.0078125 0  0.6171875 0.0078125 0  0.625 0.0078125 0  0.6328125 0.0078125 0  0.640625 0.0078125 0  0.6484375 0.0078125 0  0.65625 0.0078125 0  0.6640625 0.0078125 0  0.671875 0.0078125 0  0.6796875 0.0078125 0  0.6875 0.0078125 0  0.6953125 0.0078125 0  0.703125 0.0078125 0  0.7109375 0.0078125 0  0.71875 0.0078125 0  0.7265625 0.0078125 0  0.734375 0.0078125 0  0.7421875 0.0078125 0  0.75 0.0078125 0  0.7578125 0.0078125 0  0.765625 0.0078125 0  0.7734375 0.0078125 0  0.78125 0.0078125 0  0.7890625 0.0078125 0  0.796875 0.0078125 0  0.8046875 0.0078125 0  0.8125 0.0078125 0  0.8203125 0.0078125 0  0.828125 0.0078125 0  0.8359375 0.0078125 0  0.84375 0.0078125 0  0.8515625 0.0078125 0  0.859375 0.0078125 0  0.8671875 0.0078125 0  0.875 0.0078125 0  0.8828125 0.0078125 0  0.890625 0.0078125 0  0.8984375 0.0078125 0  0.90625 0.0078125 0  0.9140625 0.0078125 0  0.921875 0.0078125 0  0.9296875 0.0078125 0  0.9375 0.0078125 0  0.9453125 0.0078125 0  0.953125 0.0078125 0  0.9609375 0.0078125 0  0.96875 0.0078125 0  0.9765625 0.0078125 0  0.984375 0.0078125 0  0.9921875 0.0078125 0  1 0.0078125 0  0 0.015625 0  0.0078125 0.015625 0  0.015625 0.015625 0  0.0234375 0.015625 0  0.03125 0.015625 0  0.0390625 0.015625 0  0.046875 0.015625 0  0.0546875 0.015625 0  0.0625 0.015625 0  0.0703125 0.015625 0  0.078125 0.015625 0  0.0859375 0.015625 0  0.09375 0.015625 0  0.1015625 0.015625 0  0.109375 0.015625 0  0.1171875 0.015625 0  0.125 0.015625 0  0.1328125 0.015625 0  0.140625 0.015625 0  0.1484375 0.015625 0  0.15625 0.015625 0  0.1640625 0.015625 0  0.171875 0.015625 0  0.1796875 0.015625 0  0.1875 0.015625 0  0.1953125 0.015625 0  0.203125 0.015625 0  0.2109375 0.015625 0  0.21875 0.015625 0  0.2265625 0.015625 0  0.234375 0.015625 0  0.2421875 0.015625 0  0.25 0.015625 0  0.2578125 0.015625 0  0.265625 0.015625 0  0.2734375 0.015625 0  0.28125 0.015625 0  0.2890625 0.015625 0  0.296875 0.015625 0  0.3046875 0.015625 0  0.3125 0.015625 0  0.3203125 0.015625 0  0.328125 0.015625 0  0.3359375 0.015625 0  0.34375 0.015625 0  0.3515625 0.015625 0  0.359375 0.015625 0  0.3671875 0.015625 0  0.375 0.015625 0  0.3828125 0.015625 0  0.390625 0.015625 0  0.3984375 0.015625 0  0.40625 0.015625 0  0.4140625 0.015625 0  0.421875 0.015625 0  0.4296875 0.015625 0  0.4375 0.015625 0  0.4453125 0.015625 0  0.453125 0.015625 0  0.4609375 0.015625 0  0.46875 0.015625 0  0.4765625 0.015625 0  0.484375 0.015625 0  0.4921875 0.015625 0  0.5 0.015625 0  0.5078125 0.015625 0  0.515625 0.015625 0  0.5234375 0.015625 0  0.53125 0.015625 0  0.5390625 0.015625 0  0.546875 0.015625 0  0.5546875 0.015625 0  0.5625 0.015625 0  0.5703125 0.015625 0  0.578125 0.015625 0  0.5859375 0.015625 0  0.59375 0.015625 0  0.6015625 0.015625 0  0.609375 0.015625 0  0.6171875 0.015625 0  0.625 0.015625 0  0.6328125 0.015625 0  0.640625 0.015625 0  0.6484375 0.015625 0  0.65625 0.015625 0  0.6640625 0.015625 0  0.671875 0.015625 0  0.6796875 0.015625 0  0.6875 0.015625 0  0.6953125 0.015625 0  0.703125 0.015625 0  0.7109375 0.015625 0  0.71875 0.015625 0  0.7265625 0.015625 0  0.734375 0.015625 0  0.7421875 0.015625 0  0.75 0.015625 0  0.7578125 0.015625 0  0.765625 0.015625 0  0.7734375 0.015625 0  0.78125 0.015625 0  0.7890625 0.015625 0  0.796875 0.015625 0  0.8046875 0.015625 0  0.8125 0.015625 0  0.8203125 0.015625 0  0.828125 0.015625 0  0.8359375 0.015625 0  0.84375 0.015625 0  0.8515625 0.015625 0  0.859375 0.015625 0  0.8671875 0.015625 0  0.875 0.015625 0  0.8828125 0.015625 0  0.890625 0.015625 0  0.8984375 0.015625 0  0.90625 0.015625 0  0.9140625 0.015625 0  0.921875 0.015625 0  0.9296875 0.015625 0  0.9375 0.015625 0  0.9453125 0.015625 0  0.953125 0.015625 0  0.9609375 0.015625 0  0.96875 0.015625 0  0.9765625 0.015625 0  0.984375 0.015625 0  0.9921875 0.015625 0  1 0.015625 0  0 0.0234375 0  0.0078125 0.0234375 0  0.015625 0.0234375 0  0.0234375 0.0234375 0  0.03125 0.0234375 0  0.0390625 0.0234375 0  0.046875 0.0234375 0  0.0546875 0.0234375 0  0.0625 0.0234375 0  0.0703125 0.0234375 0  0.078125 0.0234375 0  0.0859375 0.0234375 0  0.09375 0.0234375 0  0.1015625 0.0234375 0  0.109375 0.0234375 0  0.1171875 0.0234375 0  0.125 0.0234375 0  0.1328125 0.0234375 0  0.140625 0.0234375 0  0.1484375 0.0234375 0  0.15625 0.0234375 0  0.1640625 0.0234375 0  0.171875 0.0234375 0  0.1796875 0.0234375 0  0.1875 0.0234375 0  0.1953125 0.0234375 0  0.203125 0.0234375 0  0.2109375 0.0234375 0  0.21875 0.0234375 0  0.2265625 0.0234375 0  0.234375 0.0234375 0  0.2421875 0.0234375 0  0.25 0.0234375 0  0.2578125 0.0234375 0  0.265625 0.0234375 0  0.2734375 0.0234375 0  0.28125 0.0234375 0  0.2890625 0.0234375 0  0.296875 0.0234375 0  0.3046875 0.0234375 0  0.3125 0.0234375 0  0.3203125 0.0234375 0  0.328125 0.0234375 0  0.3359375 0.0234375 0  0.34375 0.0234375 0  0.3515625 0.0234375 0  0.359375 0.0234375 0  0.3671875 0.0234375 0  0.375 0.0234375 0  0.3828125 0.0234375 0  0.390625 0.0234375 0  0.3984375 0.0234375 0  0.40625 0.0234375 0  0.4140625 0.0234375 0  0.421875 0.0234375 0  0.4296875 0.0234375 0  0.4375 0.0234375 0  0.4453125 0.0234375 0  0.453125 0.0234375 0  0.4609375 0.0234375 0  0.46875 0.0234375 0  0.4765625 0.0234375 0  0.484375 0.0234375 0  0.4921875 0.0234375 0  0.5 0.0234375 0  0.5078125 0.0234375 0  0.515625 0.0234375 0  0.5234375 0.0234375 0  0.53125 0.0234375 0  0.5390625 0.0234375 0  0.546875 0.0234375 0  0.5546875 0.0234375 0  0.5625 0.0234375 0  0.5703125 0.0234375 0  0.578125 0.0234375 0  0.5859375 0.0234375 0  0.59375 0.0234375 0  0.6015625 0.0234375 0  0.609375 0.0234375 0  0.6171875 0.0234375 0  0.625 0.0234375 0  0.6328125 0.0234375 0  0.640625 0.0234375 0  0.6484375 0.0234375 0  0.65625 0.0234375 0  0.6640625 0.0234375 0  0.671875 0.0234375 0  0.6796875 0.0234375 0  0.6875 0.0234375 0  0.6953125 0.0234375 0  0.703125 0.0234375 0  0.7109375 0.0234375 0  0.71875 0.0234375 0  0.7265625 0.0234375 0  0.734375 0.0234375 0  0.7421875 0.0234375 0  0.75 0.0234375 0  0.7578125 0.0234375 0  0.765625 0.0234375 0  0.7734375 0.0234375 0  0.78125 0.0234375 0  0.7890625 0.0234375 0  0.796875 0.0234375 0  0.8046875 0.0234375 0  0.8125 0.0234375 0  0.8203125 0.0234375 0  0.828125 0.0234375 0  0.8359375 0.0234375 0  0.84375 0.0234375 0  0.8515625 0.0234375 0  0.859375 0.0234375 0  0.8671
[...]
<CellData  Scalars="f_162343"> 
<DataArray  type="Float64"  Name="f_162343"  format="ascii">6.5793126342501701e-02   6.5793126159123971e-02   6.5719479392675043e-02   6.7156899789830596e-02   6.5549689749474463e-02   6.7005321794775516e-02   6.5297661977493801e-02   6.6771499093031150e-02   6.4963540432903200e-02   6.6454867946381585e-02   6.4547961494280756e-02   6.6055200745339326e-02   6.4052128554435581e-02   6.5573272104767780e-02   6.3477631960834821e-02   6.5010500835157595e-02   6.2826320263264859e-02   6.4368679212716953e-02   6.2100230023690542e-02   6.3649835284407374e-02   6.1301549226694931e-02   6.2856168079008734e-02   6.0432598853653721e-02   6.1990017438656966e-02   5.9495823168761376e-02   6.1053849919163045e-02   5.8493784785208676e-02   6.0050252023451475e-02   5.7429161680206751e-02   5.8981927046734314e-02   5.6304744881667167e-02   5.7851692808239347e-02   5.5123436165372734e-02   5.6662479885408637e-02   5.3888245437111890e-02   5.5417329177511673e-02   5.2602287452162784e-02   5.4119389187937197e-02   5.1268777982538885e-02   5.2771912321756702e-02   4.9891029070420312e-02   5.1378250703886810e-02   4.8472444021668018e-02   4.9941850951725902e-02   4.7016511416256138e-02   4.8466248738362180e-02   4.5526798941834541e-02   4.6955062267804319e-02   4.4006946278552346e-02   4.5411985677196114e-02   4.2460658020351656e-02   4.3840781485432662e-02   4.0891695854440704e-02   4.2245273147945163e-02   3.9303870647346091e-02   4.0629336708735857e-02   3.7701033989905985e-02   3.8996892640883615e-02   3.6087069849014303e-02   3.7351896953191438e-02   3.4465885630396417e-02   3.5698332588434196e-02   3.2841403482936696e-02   3.4040200123914094e-02   3.1217551041484451e-02   3.2381508788983770e-02   2.9598252566975840e-02   3.0726267027240704e-02   2.7987419618738723e-02   2.9078473268655536e-02   2.6388942063418522e-02   2.7442106552444084e-02   2.4806678641382199e-02   2.5821117165633609e-02   2.3244448142155243e-02   2.4219417223089713e-02   2.1706020154391749e-02   2.2640871562345566e-02   2.0195106286435453e-02   2.1089288403911294e-02   1.8715351069277256e-02   1.9568410419044540e-02   1.7270323561583950e-02   1.8081905653442511e-02   1.5863508580419568e-02   1.6633358976074899e-02   1.4498298643220543e-02   1.5226263306103206e-02   1.3177985456984148e-02   1.3864011420887615e-02   1.1905752483406260e-02   1.2549887691307930e-02   1.0684666956322886e-02   1.1287060316923014e-02   9.5176727617310303e-03   1.0078573669316488e-02   8.4075832044057230e-03   8.9273410340237856e-03   7.3570743591334954e-03   7.8361375388952305e-03   6.3686786108641726e-03   6.8075936277415356e-03   5.4447786807914405e-03   5.8441885999657725e-03   4.5876016787299726e-03   4.9482447752950132e-03   3.7992139731707355e-03   4.1219218161914961e-03   3.0815161107241155e-03   3.3672116250317010e-03   2.4362383437853863e-03   2.6859335130088404e-03   1.8649363602577225e-03   2.0797298641264238e-03   1.3689876462793628e-03   1.5500621239034980e-03   9.4958815380642941e-04   1.0982073972898344e-03   6.0774942458104153e-04   7.2525528801986692e-04   3.4429617483603639e-04   4.3210535775116708e-04   1.5986432193955147e-04   2.1946491798694072e-04   5.4899478818040756e-05   8.7847383557578264e-05   2.9655885230863418e-05   3.7571023687691745e-05   8.4195820690982894e-05   6.8758220454045123e-05   2.1838947451817677e-04   1.8133519602573148e-04   4.3191528113935426e-04   3.7503219878219635e-04   7.2426070526371658e-04   6.4938418417677748e-04   1.0947235372850219e-03   1.0037319435948341e-03   1.5424135846256598e-03   1.4372237425313232e-03   2.0662548613790926e-03   1.9488173656404435e-03   2.6649881980865251e-03   2.5372826987601869e-03   3.3371743914294323e-03   3.2012046825977748e-03   4.0811976231946365e-03   3.9389868133309618e-03   4.8952694608274776e-03   4.7488549924839824e-03   5.7774332315513070e-03   5.6288618881666641e-03   6.7255687973160746e-03   6.5768915935925125e-03   7.7373977404423620e-03   7.5906649918053197e-03   8.8104889630508457e-03   8.6677450610376915e-03   9.9422646088606938e-03   9.8055430612058996e-03   1.1130006480493974e-02   1.1001324670291194e-02   1.2370862572674331e-02   1.2252216922858853e-02   1.3661854343443912e-02   1.3555214997811713e-02   1.4999883746901860e-02   1.4907189796277875e-02   1.6381741242403703e-02   1.6304895557206794e-02   1.7804113488948239e-02   1.7744977914457862e-02   1.9263591774604127e-02   1.9223982146710668e-02   2.0756680368644927e-02   2.0738361794863523e-02   2.2279805492916891e-02   2.2284487398810997e-02   2.3829324085703780e-02   2.3858655787020112e-02   2.5401533270396837e-02   2.5457099001283887e-02   2.6992679493011103e-02   2.7075994173898811e-02   2.8598968454198192e-02   2.8711472889479690e-02   3.0216574595888297e-02   3.0359631256890531e-02   3.1841651244378974e-02   3.2016539752225952e-02   3.3470340583830277e-02   3.3678253523452072e-02   3.5098783941697055e-02   3.5340822401411225e-02   3.6723131936784302e-02   3.7000301616513728e-02   3.8339555193501580e-02   3.8652761845410520e-02   3.9944254485153034e-02   4.0294300138902998e-02   4.1533471651844449e-02   4.1921050194406638e-02   4.3103500002633681e-02   4.3529193224499496e-02   4.4650694957818295e-02   4.5114968388009283e-02   4.6171484955137711e-02   4.6674683715665570e-02   4.7662382110688482e-02   4.8204726501258684e-02   4.9119992833878724e-02   4.9701574299707139e-02   5.0541028721539469e-02   5.1161805227000645e-02   5.1922317274930019e-02   5.2582108885056045e-02   5.3260812759746749e-02   5.3959296711699196e-02   5.4553606872845287e-02   5.5290312686798355e-02   5.5797939889419557e-02   5.6572243764514710e-02   5.6991211526444589e-02   5.7802330589630524e-02   5.8130992636732125e-02   5.8977978032540089e-02   5.9215036946866098e-02   6.0096766328634935e-02   6.0241294204549406e-02   6.1156462345451537e-02   6.1207924632674778e-02   6.2155032058223182e-02   6.2113316416775123e-02   6.3090654293615683e-02   6.2956107423006377e-02   6.3961737505293159e-02   6.3735214766336687e-02   6.4766940798809292e-02   6.4449877345682846e-02   6.5505203414862004e-02   6.5099721424615023e-02   6.6175788366002741e-02   6.5684867207639344e-02   6.6778353145519956e-02   6.6206112944604462e-02   6.7313073486022265e-02   6.6665265005829713e-02   6.7780882834585790e-02   6.7065729446213751e-02   6.8183988989760275e-02   6.7413414254154910e-02   6.8527124257915462e-02   6.7724445033181119e-02   6.8820894468372987e-02   4.0192665610847854e-02   6.9567599921905199e-02   6.7156899871017389e-02   6.5719479381156382e-02   6.7037362167997688e-02   6.7037362222145486e-02   6.6828165634695832e-02   6.6859712471612112e-02   6.6538548755654195e-02   6.6595004939213776e-02   6.6167800211750255e-02   6.6247792425570218e-02   6.5715918701291162e-02   6.5819524090009268e-02   6.5183649865577536e-02   6.5310982586342464e-02   6.4572299381747439e-02   6.4723195827011401e-02   6.3883561814406950e-02   6.4057602614027209e-02   6.3119408198612781e-02   6.3315998113965447e-02   6.2282019016486459e-02   6.2500452235746393e-02   6.1373745162953006e-02   6.1613247514237537e-02   6.0397085507449849e-02   6.0656839127429231e-02   5.9354673340200011e-02   5.9633830267200899e-02   5.8249268085593567e-02   5.8546957247330250e-02   5.7083749319846007e-02   5.7399079824790415e-02   5.5861112230122988e-02   5.6193174600193942e-02   5.4584463126589169e-02   5.4932329695171388e-02   5.3257015165997589e-02   5.3619739963072947e-02   5.1882083432453596e-02   5.2258702140557632e-02   5.0463079967383133e-02   5.0852609860971960e-02   4.9003507760975396e-02   4.9404948060946564e-02   4.7506954821261313e-02   4.7919287128975044e-02   4.5977087154178205e-02   4.6399276369424480e-02   4.4417641959881168e-02   4.4848637162062110e-02   4.2832419649105981e-02   4.3271155613381664e-02   4.1225276344114201e-02   4.1670674839338874e-02   3.9600115241718935e-02   4.0051086857846370e-02   3.7960878339170112e-02   3.8416324312818113e-02   3.6311537504151753e-02   3.6770351775218001e-02   3.4656085754593592e-02   3.5117156980723978e-02   3.2998527847538650e-02   3.3460741754865138e-02   3.1342871405715220e-02   3.1805113008246511e-02   2.9693117294997042e-02   3.0154273371156767e-02   2.8053250583751379e-02   2.8512211933839314e-02   2.6427231045574439e-02   2.6882895081854687e-02   2.4818983949761068e-02   2.5270257044461664e-02   2.3232390551198700e-02   2.3678190597401401e-02   2.1671279235706539e-02   2.2110538093439009e-02   2.0139416110816977e-02   2.0571082072695659e-02   1.8640496263653723e-02   1.9063536473335144e-02   1.7178134782083691e-02   1.7591537693843744e-02   1.5755858326076611e-02   1.6158635997188538e-02   1.4377096440192780e-02   1.4768286904040523e-02   1.3045173630839072e-02   1.3423843133221220e-02   1.1763301110317311e-02   1.2128546364264943e-02   1.0534569380514253e-02   1.0885519651464481e-02   9.3619406026131790e-03   9.6977598165225234e-03   8.2482416844479357e-03   8.5681303433974669e-03   7.1961572718985982e-03   7.4993544645938996e-03   6.2082235623953973e-03   6.4940086697507088e-03   5.2868220018703789e-03   5.5545164636096878e-03   4.4341736958319784e-03   4.6831426062630644e-03   3.6523339880580956e-03   3.8819876396664842e-03   2.9431876158125996e-03   3.1529828820474168e-03   2.3084441142128681e-03   2.4978857193852038e-03   1.7496337553327230e-03   1.9182754862823550e-03   1.2681038186240596e-03   1.4155495735895143e-03   8.6501544894601883e-04   9.9092017145658369e-04   5.4134077296919220e-04   6.4541127644231059e-04   2.9786065828911988e-04   3.7985629632963962e-04   1.3516276951794912e-04   1.9489602737903061e-04   5.3640237713661223e-05   9.0977137495766718e-05   5.3490676195241156e-05   6.8351096637350530e-05   1.3471574198448954e-04   1.2707358870313421e-04   2.9712115779319178e-04   2.6700438980213750e-04   5.4031717183820882e-04   4.8780773211061279e-04   8.6371955598183912e-04   7.8895312033723205e-04   1.2665509860309563e-03   1.1697166397947338e-03   1.7478430089869930e-03   1.6291827065120362e-03   2.3064383201321808e-03   2.1662463221513184e-03   2.9409936738392871e-03   2.7796157443670247e-03   3.6499830655232469e-03   3.4678156500297266e-03   4.4317015384740680e-03   4.2291906882978413e-03   5.2842692416854090e-03   5.0619095505323244e-03   6.2056361158681697e-03   5.9639693988954839e-03   7.1935867758948493e-03   6.9332007660025492e-03   8.2457460545400096e-03   7.9672728214250955e-03   9.3595846298883019e-03   9.0636990625478572e-03   1.0532425389528852e-02   1.0219843354922934e-02   1.1761449781485394e-02   1.1432926427801667e-02   1.3043704959724510e-02   1.2700032626104215e-02   1.4376110757262597e-02   1.4018117020096029e-02   1.5755467466497790e-02   1.5384012955048588e-02   1.7178463594381615e-02   1.6794439762890433e-02   1.8641684083864189e-02   1.8246010850887916e-02   2.0141618737960311e-02   1.9735242053708101e-02   2.1674670935904333e-02   2.1258560239979553e-02   2.3237166490973772e-02   2.2812312176566103e-02   2.4825363043233534e-02   2.4392773648461492e-02   2.6435459108756377e-02   2.5996158691002878e-02   2.8063603973313776e-02   2.7618629112595425e-02   2.9705907140772266e-02   2.9256304180700601e-02   3.1358448452581289e-02   3.0905270410141811e-02   3.3017287938830270e-02   3.2561591564129647e-02   3.4678476207385324e-02   3.4221318706476399e-02   3.6338064304406066e-02   3.5880500379280027e-02   3.7992114563860035e-02   3.7535192985101704e-02   3.9636710467092905e-02   3.9181470995359936e-02   4.1267967599392316e-02   4.0815437552801329e-02   4.2882043886123933e-02   4.2433234751800122e-02   4.4475150211348756e-02   4.4031054267268749e-02   4.6043560856023603e-02   4.5605147732942192e-02   4.7583624211699954e-02   4.7151837328122448e-02   4.9091773068103389e-02   4.8667526169910061e-02   5.0564535280352638e-02   5.0148708834157375e-02   5.1998543985952932e-02   5.1591981630515267e-02   5.3390548143542223e-02   5.2994052983529008e-02   5.4737422582389693e-02   5.4351753677585379e-02   5.6036178335990665e-02   5.5662046961339688e-02   5.7283972591926982e-02   5.6922038514694039e-02   5.8478118765922002e-02   5.8128986596142664e-02   5.9616096241721594e-02   5.9280311730128370e-02   6.0695560518057863e-02   6.0373606711506454e-02   6.1714352919087875e-02   6.1406646555538902e-02   6.2670511016858152e-02   6.2377398865793292e-02   6.3562279243726871e-02   6.3284034851081444e-02   6.4388120918621256e-02   6.4124941897772708e-02   6.5146731642946307e-02   6.4898738764184102e-02   6.5837056433769525e-02   6.5604296357796299e-02   6.6458312486939758e-02   6.6240768535522423e-02   6.7010023778055872e-02   6.6807644056380205e-02   6.7492083239683864e-02   6.7304842972233034e-02   6.7904897221191488e-02   6.7732910887245826e-02   6.8249823593912115e-02   6.8093428989542917e-02   6.8530765794847279e-02   6.8389861015129075e-02   6.8760466151064792e-02   6.8628996814432700e-02   6.7724445170816203e-02   6.8820894872505145e-02   6.7005322072790099e-02   6.5549689906945222e-02   6.6859712600048610e-02   6.6828165836694459e-02   6.6624666813814570e-02   6.6624666833511273e-02   6.6306391172732237e-02   6.6334411722708569e-02   6.5907021187388781e-02   6.5960549421537049e-02   6.5427522037793812e-02   6.5505158579555925e-02   6.4868893675399109e-02   6.4969929374659063e-02   6.4232429386866755e-02   6.4356438565529903e-02   6.3519741295986129e-02   6.3666343443640958e-02   6.2732722819094852e-02   6.2901480912070429e-02   6.1873502814061933e-02   6.2063895743491207e-02   6.0944407817421470e-02   6.1155833691058717e-02   5.9947934284832582e-02   6.0179722977973929e-02   5.8886729110944870e-02   5.9138155097181615e-02   5.7763576038074527e-02   5.8033868610458554e-02   5.6581385576342361e-02   5.6869736396048358e-02   5.5343187316726050e-02   5.5648755614961860e-02   5.4052123467607557e-02   5.4374039466033523e-02   5.2711442725024968e-02   5.3048810150428866e-02   5.1324494525698219e-02   5.1676392296226448e-02   4.9894722970057807e-02   5.0260206664157439e-02   4.8425660643940764e-02   4.8803763744641356e-02   4.6920921999305837e-02   4.7310657058942961e-02   4.5384196376875033e-02   4.5784556331871104e-02   4.3819240715916204e-02   4.4229200237071255e-02   4.2229871814368082e-02   4.2648388916397426e-02   4.0619958451060242e-02   4.1045975991920940e-02   3.8993412967694374e-02   3.9425860540981357e-02   3.7354182813417784e-02   3.7791978575506792e-02   3.5706241769259080e-02   3.6148294522178694e-02   3.4053581048498295e-02   3.4498792293418699e-02   3.2400200084822035e-02   3.2847466348668829e-02   3.0750097718431169e-02   3.1198312612816959e-02   2.9107262428322976e-02   2.9555319300158284e-02   2.7475663526511991e-02   2.7922457631563802e-02   2.5859241668781698e-02   2.6303672657447926e-02   2.4261899589519437e-02   2.4702873939092186e-02   2.2687492911938369e-02   2.3123926437124818e-02   2.1139821064453345e-02   2.1570641403491016e-02   1.9622618233758143e-02   2.0046767258228893e-02   1.8139544503852079e-02   1.8555980766251607e-02   1.6694177126607694e-02   1.7101878333205520e-02   1.5290002030700595e-02   1.5687967352221700e-02   1.3930405399167702e-02   1.4317657908284575e-02   1.2618665704459684e-02   1.2994254572315600e-02   1.1357945728902117e-02   1.1720948585721246e-02   1.0151285134291328e-02   1.0500810132985939e-02   9.0015930339711128e-03   9.3367810496613416e-03   7.9116411142708763e-03   8.2316677235918772e-03   6.8840569710515850e-03   7.1881344612043287e-03   5.9213177651971580e-03   6.2086969682311356e-03   5.0257443134765307e-03   5.2957164144950015e-03   4.1994955246447922e-03   4.4513937265767533e-03   3.4445632007778283e-03   3.6777643305210073e-03   2.7627672367132525e-03   2.9766932249853462e-03   2.1557512921500199e-03   2.3498705386816149e-03   1.6249788163647532e-03   1.7988074570779134e-03   1.1717295398571742e-03   1.3248326366986122e-03   7.9709643026739242e-04   9.2908893232510677e-04   5.0198303088054802e-04   6.1253075261603342e-04   2.8710133895813717e-04   3.7592170041195313e-04   1.5297006696826730e-04   2.1983279271698273e-04   9.9913432774064893e-05   1.4464107383150624e-04   1.2806038006762873e-04   1.5052872568581860e-04   2.3734428265518459e-04   2.3748264093651864e-04   4.2750313123417319e-04   4.0529447441203478e-04   6.9808016483683365e-04   6.5356115233898820e-04   1.0484250077929635e-03   9.8168587255709813e-04   1.4776952358911742e-03   1.3888795446880384e-03   1.9848584501773931e-03   1.8741627168067376e-03   2.5686947808168706e-03   2.4363679637069524e-03   3.2277998428033444e-03   3.0741427119563834e-03   3.9605881713743281e-03   3.7859525498226730e-03   4.7652970559339675e-03   4.5700849075195338e-03   5.6399908532289720e-03   5.4246532826635833e-03   6.5825656431402358e-03   6.3476017608247934e-03   7.5907544273248993e-03   7.3367100615791287e-03   8.6621325815783076e-03   8.3895988996516551e-03   9.7941237913573738e-03   9.5037358202974126e-03   1.0984006343199616e-02   1.0676441323607958e-02   1.2228919746885983e-02   1.1904895428361033e-02   1.3525871693041607e-02   1.3186144524426541e-02   1.4871745494641410e-02   1.4517108616800610e-02   1.6263307581906954e-02   1.5894588824572831e-02   1.7697215495136975e-02   1.7315275299153630e-02   1.9170026162141036e-02   1.8775755197593381e-02   2.0678204271210029e-02   2.0272521243275655e-02   2.2218131099579916e-02   2.1801980250419288e-02   2.3786113389632040e-02   2.3360462102068026e-02   2.5378392629356681e-02   2.4944228721263860e-02   2.6991154355403165e-02   2.6549483527131188e-02   2.8620537675765091e-02   2.8172380740362029e-02   3.0262645075010839e-02   2.9809035180955134e-02   3.1913552192090716e-02   3.1455531925534269e-02   3.3569317829742248e-02   3.3107936374789357e-02   3.5225994030035429e-02   3.4762304092720707e-02   3.6879636223258044e-02   3.6414691119269427e-02   3.8526313541498575e-02   3.8061163980204461e-02   4.0162119021113662e-02   3.9697810148187601e-02   4.1783179990545385e-02   4.1320748148139103e-02   4.3385668494940292e-02   4.2926138074352145e-02   4.4965811592069103e-02   4.4510191740523432e-02   4.6519901664533111e-02   4.6069183163698367e-02   4.8044306832009741e-02   4.7599458837652479e-02   4.9535481149905816e-02   4.9097447939286526e-02   5.0989974865396422e-02   5.0559672608197180e-02   5.2404444373714887e-02   5.1982758054601043e-02   5.3775662465754825e-02   5.3363442663389576e-02   5.5100527815284295e-02   5.4698587746174893e-02   5.6376074925284729e-02   5.5985187532924710e-02   5.7599483435088014e-02   5.7220378665897777e-02   5.8768087314319165e-02   5.8401449752811196e-02   5.9879383900007278e-02   5.9525850658150484e-02   6.0931042503420157e-02   6.0591201738259375e-02   6.1920912752896691e-02   6.1595302979519123e-02   6.2847032883124848e-02   6.2536143447478862e-02   6.3707637793642496e-02   6.3411911078962810e-02   6.4501167767835835e-02   6.4221003965835619e-02   6.5226278477666308e-02   6.4962044249053524e-02   6.5881855105861933e-02   6.5633897712289446e-02   6.6467036330254220e-02   6.6235704540057741e-02   6.6981263602110347e-02   6.6766932713724095e-02   6.7424395788798649e-02   6.7227476407158843e-02   6.7796995976332666e-02   6.7617840475905341e-02   6.8101056670722915e-02   6.7939472508683832e-02   6.8341734407254995e-02   6.8195266661338183e-02   6.8530766140324217e-02   6.8389861396356541e-02   6.7413414700809138e-02   6.8527125035289238e-02   6.6771499570783821e-02   6.5297662274832469e-02   6.6595005252415393e-02   6.6538549100330246e-02   6.6334411886201941e-02   6.6306391333153261e-02   6.5989600419869343e-02   6.5989600406648807e-02   6.5563462264979652e-02   6.5589630175875283e-02   6.5057503468480979e-02   6.5108474178262529e-02   6.4473124592196410e-02   6.4547940158398376e-02   6.3811878587610310e-02   6.3909836467627990e-02   6.3075521120523712e-02   6.3196056895434546e-02   6.2266014157457777e-02   6.2408616173765294e-02   6.1385515874622300e-02   6.1549670422353903e-02   6.0436365928688361e-02   6.0621527344907153e-02   5.9421070276330097e-02   5.9626647847598920e-02   5.8342287254996447e-02   5.8567641863411533e-02   5.720281