<?xml version="1.0"?>
<VTKFile type="UnstructuredGrid"  version="0.1"  >
<UnstructuredGrid>
<Piece  NumberOfPoints="16641" NumberOfCells="32768">
<Points>
<DataArray  type="Float64"  NumberOfComponents="3"  format="ascii">0 0 0  0.0078125 0 0  0.015625 0 0  0.0234375 0 0  0.03125 0 0  0.0390625 0 0  0.046875 0 0  0.0546875 0 0  0.0625 0 0  0.0703125 0 0  0.078125 0 0  0.0859375 0 0  0.09375 0 0  0.1015625 0 0  0.109375 0 0  0.1171875 0 0  0.125 0 0  0.1328125 0 0  0.140625 0 0  0.1484375 0 0  0.15625 0 0  0.1640625 0 0  0.171875 0 0  0.1796875 0 0  0.1875 0 0  0.1953125 0 0  0.203125 0 0  0.2109375 0 0  0.21875 0 0  0.2265625 0 0  0.234375 0 0  0.2421875 0 0  0.25 0 0  0.2578125 0 0  0.265625 0 0  0.2734375 0 0  0.28125 0 0  0.2890625 0 0  0.296875 0 0  0.3046875 0 0  0.3125 0 0  0.3203125 0 0  0.328125 0 0  0.3359375 0 0  0.34375 0 0  0.3515625 0 0  0.359375 0 0  0.3671875 0 0  0.375 0 0  0.3828125 0 0  0.390625 0 0  0.3984375 0 0  0.40625 0 0  0.4140625 0 0  0.421875 0 0  0.4296875 0 0  0.4375 0 0  0.4453125 0 0  0.453125 0 0  0.4609375 0 0  0.46875 0 0  0.4765625 0 0  0.484375 0 0  0.4921875 0 0  0.5 0 0  0.5078125 0 0  0.515625 0 0  0.5234375 0 0  0.53125 0 0  0.5390625 0 0  0.546875 0 0  0.5546875 0 0  0.5625 0 0  0.5703125 0 0  0.578125 0 0  0.5859375 0 0  0.59375 0 0  0.6015625 0 0  0.609375 0 0  0.6171875 0 0  0.625 0 0  0.6328125 0 0  0.640625 0 0  0.6484375 0 0  0.65625 0 0  0.6640625 0 0  0.671875 0 0  0.6796875 0 0  0.6875 0 0  0.6953125 0 0  0.703125 0 0  0.7109375 0 0  0.71875 0 0  0.7265625 0 0  0.734375 0 0  0.7421875 0 0  0.75 0 0  0.7578125 0 0  0.765625 0 0  0.7734375 0 0  0.78125 0 0  0.7890625 0 0  0.796875 0 0  0.8046875 0 0  0.8125 0 0  0.8203125 0 0  0.828125 0 0  0.8359375 0 0  0.84375 0 0  0.8515625 0 0  0.859375 0 0  0.8671875 0 0  0.875 0 0  0.8828125 0 0  0.890625 0 0  0.8984375 0 0  0.90625 0 0  0.9140625 0 0  0.921875 0 0  0.9296875 0 0  0.9375 0 0  0.9453125 0 0  0.953125 0 0  0.9609375 0 0  0.96875 0 0  0.9765625 0 0  0.984375 0 0  0.9921875 0 0  1 0 0  0 0.0078125 0  0.0078125 0.0078125 0  0.015625 0.0078125 0  0.0234375 0.0078125 0  0.03125 0.0078125 0  0.0390625 0.0078125 0  0.046875 0.0078125 0  0.0546875 0.0078125 0  0.0625 0.0078125 0  0.0703125 0.0078125 0  0.078125 0.0078125 0  0.0859375 0.0078125 0  0.09375 0.0078125 0  0.1015625 0.0078125 0  0.109375 0.0078125 0  0.1171875 0.0078125 0  0.125 0.0078125 0  0.1328125 0.0078125 0  0.140625 0.0078125 0  0.1484375 0.0078125 0  0.15625 0.0078125 0  0.1640625 0.0078125 0  0.171875 0.0078125 0  0.1796875 0.0078125 0  0.1875 0.0078125 0  0.1953125 0.0078125 0  0.203125 0.0078125 0  0.2109375 0.0078125 0  0.21875 0.0078125 0  0.2265625 0.0078125 0  0.234375 0.0078125 0  0.2421875 0.0078125 0  0.25 0.0078125 0  0.2578125 0.0078125 0  0.265625 0.0078125 0  0.2734375 0.0078125 0  0.28125 0.0078125 0  0.2890625 0.0078125 0  0.296875 0.0078125 0  0.3046875 0.0078125 0  0.3125 0.0078125 0  0.3203125 0.0078125 0  0.328125 0.0078125 0  0.3359375 0.0078125 0  0.34375 0.0078125 0  0.3515625 0.0078125 0  0.359375 0.0078125 0  0.3671875 0.0078125 0  0.375 0.0078125 0  0.3828125 0.0078125 0  0.390625 0.0078125 0  0.3984375 0.0078125 0  0.40625 0.0078125 0  0.4140625 0.0078125 0  0.421875 0.0078125 0  0.4296875 0.0078125 0  0.4375 0.0078125 0  0.4453125 0.0078125 0  0.453125 0.0078125 0  0.4609375 0.0078125 0  0.46875 0.0078125 0  0.4765625 0.0078125 0  0.484375 0.0078125 0  0.4921875 0.0078125 0  0.5 0.0078125 0  0.5078125 0.0078125 0  0.515625 0.0078125 0  0.5234375 0.0078125 0  0.53125 0.0078125 0  0.5390625 0.0078125 0  0.546875 0.0078125 0  0.5546875 0.0078125 0  0.5625 0.0078125 0  0.5703125 0.0078125 0  0.578125 0.0078125 0  0.5859375 0.0078125 0  0.59375 0.0078125 0  0.6015625 0.0078125 0  0.609375 0.0078125 0  0.6171875 0.0078125 0  0.625 0.0078125 0  0.6328125 0.0078125 0  0.640625 0.0078125 0  0.6484375 0.0078125 0  0.65625 0.0078125 0  0.6640625 0.0078125 0  0.671875 0.0078125 0  0.6796875 0.0078125 0  0.6875 0.0078125 0  0.6953125 0.0078125 0  0.703125 0.0078125 0  0.7109375 0.0078125 0  0.71875 0.0078125 0  0.7265625 0.0078125 0  0.734375 0.0078125 0  0.7421875 0.0078125 0  0.75 0.0078125 0  0.7578125 0.0078125 0  0.765625 0.0078125 0  0.7734375 0.0078125 0  0.78125 0.0078125 0  0.7890625 0.0078125 0  0.796875 0.0078125 0  0.8046875 0.0078125 0  0.8125 0.0078125 0  0.8203125 0.0078125 0  0.828125 0.0078125 0  0.8359375 0.0078125 0  0.84375 0.0078125 0  0.8515625 0.0078125 0  0.859375 0.0078125 0  0.8671875 0.0078125 0  0.875 0.0078125 0  0.8828125 0.0078125 0  0.890625 0.0078125 0  0.8984375 0.0078125 0  0.90625 0.0078125 0  0.9140625 0.0078125 0  0.921875 0.0078125 0  0.9296875 0.0078125 0  0.9375 0.0078125 0  0.9453125 0.0078125 0  0.953125 0.0078125 0  0.9609375 0.0078125 0  0.96875 0.0078125 0  0.9765625 0.0078125 0  0.984375 0.0078125 0  0.9921875 0.0078125 0  1 0.0078125 0  0 0.015625 0  0.0078125 0.015625 0  0.015625 0.015625 0  0.0234375 0.015625 0  0.03125 0.015625 0  0.0390625 0.015625 0  0.046875 0.015625 0  0.0546875 0.015625 0  0.0625 0.015625 0  0.0703125 0.015625 0  0.078125 0.015625 0  0.0859375 0.015625 0  0.09375 0.015625 0  0.1015625 0.015625 0  0.109375 0.015625 0  0.1171875 0.015625 0  0.125 0.015625 0  0.1328125 0.015625 0  0.140625 0.015625 0  0.1484375 0.015625 0  0.15625 0.015625 0  0.1640625 0.015625 0  0.171875 0.015625 0  0.1796875 0.015625 0  0.1875 0.015625 0  0.1953125 0.015625 0  0.203125 0.015625 0  0.2109375 0.015625 0  0.21875 0.015625 0  0.2265625 0.015625 0  0.234375 0.015625 0  0.2421875 0.015625 0  0.25 0.015625 0  0.2578125 0.015625 0  0.265625 0.015625 0  0.2734375 0.015625 0  0.28125 0.015625 0  0.2890625 0.015625 0  0.296875 0.015625 0  0.3046875 0.015625 0  0.3125 0.015625 0  0.3203125 0.015625 0  0.328125 0.015625 0  0.3359375 0.015625 0  0.34375 0.015625 0  0.3515625 0.015625 0  0.359375 0.015625 0  0.3671875 0.015625 0  0.375 0.015625 0  0.3828125 0.015625 0  0.390625 0.015625 0  0.3984375 0.015625 0  0.40625 0.015625 0  0.4140625 0.015625 0  0.421875 0.015625 0  0.4296875 0.015625 0  0.4375 0.015625 0  0.4453125 0.015625 0  0.453125 0.015625 0  0.4609375 0.015625 0  0.46875 0.015625 0  0.4765625 0.015625 0  0.484375 0.015625 0  0.4921875 0.015625 0  0.5 0.015625 0  0.5078125 0.015625 0  0.515625 0.015625 0  0.5234375 0.015625 0  0.53125 0.015625 0  0.5390625 0.015625 0  0.546875 0.015625 0  0.5546875 0.015625 0  0.5625 0.015625 0  0.5703125 0.015625 0  0.578125 0.015625 0  0.5859375 0.015625 0  0.59375 0.015625 0  0.6015625 0.015625 0  0.609375 0.015625 0  0.6171875 0.015625 0  0.625 0.015625 0  0.6328125 0.015625 0  0.640625 0.015625 0  0.6484375 0.015625 0  0.65625 0.015625 0  0.6640625 0.015625 0  0.671875 0.015625 0  0.6796875 0.015625 0  0.6875 0.015625 0  0.6953125 0.015625 0  0.703125 0.015625 0  0.7109375 0.015625 0  0.71875 0.015625 0  0.7265625 0.015625 0  0.734375 0.015625 0  0.7421875 0.015625 0  0.75 0.015625 0  0.7578125 0.015625 0  0.765625 0.015625 0  0.7734375 0.015625 0  0.78125 0.015625 0  0.7890625 0.015625 0  0.796875 0.015625 0  0.8046875 0.015625 0  0.8125 0.015625 0  0.8203125 0.015625 0  0.828125 0.015625 0  0.8359375 0.015625 0  0.84375 0.015625 0  0.8515625 0.015625 0  0.859375 0.015625 0  0.8671875 0.015625 0  0.875 0.015625 0  0.8828125 0.015625 0  0.890625 0.015625 0  0.8984375 0.015625 0  0.90625 0.015625 0  0.9140625 0.015625 0  0.921875 0.015625 0  0.9296875 0.015625 0  0.9375 0.015625 0  0.9453125 0.015625 0  0.953125 0.015625 0  0.9609375 0.015625 0  0.96875 0.015625 0  0.9765625 0.015625 0  0.984375 0.015625 0  0.9921875 0.015625 0  1 0.015625 0  0 0.0234375 0  0.0078125 0.0234375 0  0.015625 0.0234375 0  0.0234375 0.0234375 0  0.03125 0.0234375 0  0.0390625 0.0234375 0  0.046875 0.0234375 0  0.0546875 0.0234375 0  0.0625 0.0234375 0  0.0703125 0.0234375 0  0.078125 0.0234375 0  0.0859375 0.0234375 0  0.09375 0.0234375 0  0.1015625 0.0234375 0  0.109375 0.0234375 0  0.1171875 0.0234375 0  0.125 0.0234375 0  0.1328125 0.0234375 0  0.140625 0.0234375 0  0.1484375 0.0234375 0  0.15625 0.0234375 0  0.1640625 0.0234375 0  0.171875 0.0234375 0  0.1796875 0.0234375 0  0.1875 0.0234375 0  0.1953125 0.0234375 0  0.203125 0.0234375 0  0.2109375 0.0234375 0  0.21875 0.0234375 0  0.2265625 0.0234375 0  0.234375 0.0234375 0  0.2421875 0.0234375 0  0.25 0.0234375 0  0.2578125 0.0234375 0  0.265625 0.0234375 0  0.2734375 0.0234375 0  0.28125 0.0234375 0  0.2890625 0.0234375 0  0.296875 0.0234375 0  0.3046875 0.0234375 0  0.3125 0.0234375 0  0.3203125 0.0234375 0  0.328125 0.0234375 0  0.3359375 0.0234375 0  0.34375 0.0234375 0  0.3515625 0.0234375 0  0.359375 0.0234375 0  0.3671875 0.0234375 0  0.375 0.0234375 0  0.3828125 0.0234375 0  0.390625 0.0234375 0  0.3984375 0.0234375 0  0.40625 0.0234375 0  0.4140625 0.0234375 0  0.421875 0.0234375 0  0.4296875 0.0234375 0  0.4375 0.0234375 0  0.4453125 0.0234375 0  0.453125 0.0234375 0  0.4609375 0.0234375 0  0.46875 0.0234375 0  0.4765625 0.0234375 0  0.484375 0.0234375 0  0.4921875 0.0234375 0  0.5 0.0234375 0  0.5078125 0.0234375 0  0.515625 0.0234375 0  0.5234375 0.0234375 0  0.53125 0.0234375 0  0.5390625 0.0234375 0  0.546875 0.0234375 0  0.5546875 0.0234375 0  0.5625 0.0234375 0  0.5703125 0.0234375 0  0.578125 0.0234375 0  0.5859375 0.0234375 0  0.59375 0.0234375 0  0.6015625 0.0234375 0  0.609375 0.0234375 0  0.6171875 0.0234375 0  0.625 0.0234375 0  0.6328125 0.0234375 0  0.640625 0.0234375 0  0.6484375 0.0234375 0  0.65625 0.0234375 0  0.6640625 0.0234375 0  0.671875 0.0234375 0  0.6796875 0.0234375 0  0.6875 0.0234375 0  0.6953125 0.0234375 0  0.703125 0.0234375 0  0.7109375 0.0234375 0  0.71875 0.0234375 0  0.7265625 0.0234375 0  0.734375 0.0234375 0  0.7421875 0.0234375 0  0.75 0.0234375 0  0.7578125 0.0234375 0  0.765625 0.0234375 0  0.7734375 0.0234375 0  0.78125 0.0234375 0  0.7890625 0.0234375 0  0.796875 0.0234375 0  0.8046875 0.0234375 0  0.8125 0.0234375 0  0.8203125 0.0234375 0  0.828125 0.0234375 0  0.8359375 0.0234375 0  0.84375 0.0234375 0  0.8515625 0.0234375 0  0.859375 0.0234375 0  0.8671
[...]
<CellData  Scalars="f_196013"> 
<DataArray  type="Float64"  Name="f_196013"  format="ascii">1.0854650910979676e-13   1.0854617636812214e-13   1.0855465877433728e-13   1.3690964951572015e-13   1.0853553322436892e-13   1.3688741974803472e-13   1.0848861314038709e-13   1.3683023096132567e-13   1.0841380904724750e-13   1.3673789666513104e-13   1.0831122254547138e-13   1.3661051812029587e-13   1.0818106788454729e-13   1.3644835322290738e-13   1.0802364435402884e-13   1.3625177205374077e-13   1.0783932522624522e-13   1.3602123984346646e-13   1.0762855248250628e-13   1.3575730924115391e-13   1.0739183371118706e-13   1.3546061599487526e-13   1.0712973986155399e-13   1.3513187595354444e-13   1.0684290333416079e-13   1.3477188259736412e-13   1.0653201616206937e-13   1.3438150471846335e-13   1.0619782818442796e-13   1.3396168411445548e-13   1.0584114515326643e-13   1.3351343320728277e-13   1.0546282674497810e-13   1.3303783253916151e-13   1.0506378448097958e-13   1.3253602816265521e-13   1.0464497952796150e-13   1.3200922887543969e-13   1.0420742039009474e-13   1.3145870332029342e-13   1.0375216049289354e-13   1.3088577694649961e-13   1.0328029566983310e-13   1.3029182884907603e-13   1.0279296154259710e-13   1.2967828847419226e-13   1.0229133080386682e-13   1.2904663220048466e-13   1.0177661041022734e-13   1.2839837980367110e-13   1.0125003870797330e-13   1.2773509084127561e-13   1.0071288246424305e-13   1.2705836091411759e-13   1.0016643383557249e-13   1.2636981784649079e-13   9.9612007275146129e-14   1.2567111779435335e-13   9.9050936383989658e-14   1.2496394127624318e-13   9.8484570717123344e-14   1.2424998914923541e-13   9.7914272550543208e-14   1.2353097853614215e-13   9.7341413613618860e-14   1.2280863870407948e-13   9.6767371798937449e-14   1.2208470692281756e-13   9.6193527848186887e-14   1.2136092428118810e-13   9.5621262050849406e-14   1.2063903152832949e-13   9.5051950924728538e-14   1.1992076488585533e-13   9.4486963908377164e-14   1.1920785187631498e-13   9.3927660075590396e-14   1.1850200717985801e-13   9.3375384864639919e-14   1.1780492850794666e-13   9.2831466843356396e-14   1.1711829251856113e-13   9.2297214525471992e-14   1.1644375080558365e-13   9.1773913214311905e-14   1.1578292590769058e-13   9.1262821918509259e-14   1.1513740741876894e-13   9.0765170318178147e-14   1.1450874815854552e-13   9.0282155808937710e-14   1.1389846043791380e-13   8.9814940623985459e-14   1.1330801242560500e-13   8.9364649033728095e-14   1.1273882460973087e-13   8.8932364640430298e-14   1.1219226638027151e-13   8.8519127772460472e-14   1.1166965273952140e-13   8.8125932975603315e-14   1.1117224112302962e-13   8.7753726630156432e-14   1.1070122839764098e-13   8.7403404656009665e-14   1.1025774795179766e-13   8.7075810366881628e-14   1.0984286698140335e-13   8.6771732440624717e-14   1.0945758392601431e-13   8.6491903013966710e-14   1.0910282605373798e-13   8.6236995921355697e-14   1.0877944723047037e-13   8.6007625074572179e-14   1.0848822586816915e-13   8.5804342982903912e-14   1.0822986304917298e-13   8.5627639422328991e-14   1.0800498083558369e-13   8.5477940257048254e-14   1.0781412077557771e-13   8.5355606410349928e-14   1.0765774259067570e-13   8.5260933001167372e-14   1.0753622308007382e-13   8.5194148628842653e-14   1.0744985520638703e-13   8.5155414819379755e-14   1.0739884738703393e-13   8.5144825641869890e-14   1.0738332299546672e-13   8.5162407479564109e-14   1.0740332006570216e-13   8.5208118966067749e-14   1.0745879120099381e-13   8.5281851077783445e-14   1.0754960367426354e-13   8.5383427403327383e-14   1.0767553976214598e-13   8.5512604560417192e-14   1.0783629725560886e-13   8.5669072783135623e-14   1.0803149019239943e-13   8.5852456662914750e-14   1.0826064977884433e-13   8.6062316050612509e-14   1.0852322551624820e-13   8.6298147113084316e-14   1.0881858652483479e-13   8.6559383539072962e-14   1.0914602305327827e-13   8.6845397896808700e-14   1.0950474817834425e-13   8.7155503143083199e-14   1.0989389970283509e-13   8.7488954261393681e-14   1.1031254220635286e-13   8.7844950054367220e-14   1.1075966930131075e-13   8.8222635056639305e-14   1.1123420603210988e-13   8.8621101586076374e-14   1.1173501145777055e-13   8.9039391912031029e-14   1.1226088137487130e-13   8.9476500545267625e-14   1.1281055119866765e-13   8.9931376640586578e-14   1.1338269898691273e-13   9.0402926505651297e-14   1.1397594859364710e-13   9.0890016212460161e-14   1.1458887296264416e-13   9.1391474293380023e-14   1.1521999751408445e-13   9.1906094539442997e-14   1.1586780367400873e-13   9.2432638863807773e-14   1.1653073247859654e-13   9.2969840248594265e-14   1.1720718828745659e-13   9.3516405746177648e-14   1.1789554256490894e-13   9.4071019548238169e-14   1.1859413774698098e-13   9.4632346099508168e-14   1.1930129117006951e-13   9.5199033248547041e-14   1.2001529903848280e-13   9.5769715441210068e-14   1.2073444045804547e-13   9.6343016925221428e-14   1.2145698147079436e-13   9.6917554986149341e-14   1.2218117914701761e-13   9.7491943172654547e-14   1.2290528564843800e-13   9.8064794533054893e-14   1.2362755232024414e-13   9.8634724829060336e-14   1.2434623374628848e-13   9.9200355734791194e-14   1.2505959179590691e-13   9.9760317993825695e-14   1.2576589961243724e-13   1.0031325454087334e-13   1.2646344556742558e-13   1.0085782355713625e-13   1.2715053712660750e-13   1.0139270146358487e-13   1.2782550465148432e-13   1.0191658581836795e-13   1.2848670507680445e-13   1.0242819811834945e-13   1.2913252548095874e-13   1.0292628647047347e-13   1.2976138649988622e-13   1.0340962811436513e-13   1.3037174556772892e-13   1.0387703175752492e-13   1.3096209994325339e-13   1.0432733967455585e-13   1.3153098946194229e-13   1.0475942952244534e-13   1.3207699897616506e-13   1.0517221576942878e-13   1.3259876036705083e-13   1.0556465061687581e-13   1.3309495401101312e-13   1.0593572421827117e-13   1.3356430950972083e-13   1.0628446388472645e-13   1.3400560538375476e-13   1.0660993177334523e-13   1.3441766726415462e-13   1.0691122019815179e-13   1.3479936381634539e-13   1.0718744300812945e-13   1.3514959905936390e-13   1.0743772008306982e-13   1.3546729870103117e-13   1.0766114894735349e-13   1.3575138593505695e-13   1.0785675035824042e-13   1.3600073759500791e-13   1.0802335630727520e-13   1.3621410097393964e-13   1.0815935700461553e-13   1.3638992574430225e-13   1.0826206218184159e-13   1.3652599644159632e-13   1.0832588284633209e-13   1.3661855268843647e-13   8.0047108925285046e-14   1.3665996773609402e-13   1.3680092781040996e-13   1.0844507198976120e-13   1.3679995986227374e-13   1.3679922295074643e-13   1.3676359541318636e-13   1.3676279527095918e-13   1.3669197619761644e-13   1.3669095546391250e-13   1.3658522580648204e-13   1.3658396066011924e-13   1.3644355850315222e-13   1.3644205410787045e-13   1.3626729026791539e-13   1.3626555651175424e-13   1.3605683283294588e-13   1.3605487943840441e-13   1.3581268743123588e-13   1.3581052334456403e-13   1.3553544028196861e-13   1.3553307387237820e-13   1.3522575930223117e-13   1.3522319863177100e-13   1.3488439146048305e-13   1.3488164449050006e-13   1.3451216038758396e-13   1.3450923512474283e-13   1.3410996405810603e-13   1.3410686864546549e-13   1.3367877245077205e-13   1.3367551522897938e-13   1.3321962509956346e-13   1.3321621464298111e-13   1.3273362855245755e-13   1.3273007368526944e-13   1.3222195367692708e-13   1.3221826348190016e-13   1.3168583284389243e-13   1.3168201666116782e-13   1.3112655696756934e-13   1.3112262438675776e-13   1.3054547242462769e-13   1.3054143327326248e-13   1.2994397782349668e-13   1.2993984215078743e-13   1.2932352066806529e-13   1.2931929872899690e-13   1.2868559388538899e-13   1.2868129612033154e-13   1.2803173228370175e-13   1.2802736929681711e-13   1.2736350885374445e-13   1.2735909139173860e-13   1.2668253102171422e-13   1.2667806995145325e-13   1.2599043679428806e-13   1.2598594307604625e-13   1.2528889084806667e-13   1.2528437551650485e-13   1.2457958052975512e-13   1.2457505466526509e-13   1.2386421182240195e-13   1.2385968652710237e-13   1.2314450525030196e-13   1.2313999162409649e-13   1.2242219175563291e-13   1.2241770086903304e-13   1.2169900854143851e-13   1.2169455141626651e-13   1.2097669492072821e-13   1.2097228249966484e-13   1.2025698812001050e-13   1.2025263124499468e-13   1.1954161911342700e-13   1.1953732849903719e-13   1.1883230847867570e-13   1.1882809468912275e-13   1.1813076224651325e-13   1.1812663567282540e-13   1.1743866780266915e-13   1.1743463863902994e-13   1.1675768985381562e-13   1.1675376807290931e-13   1.1608946639932447e-13   1.1608566173265453e-13   1.1543560480535291e-13   1.1543192671917383e-13   1.1479767793342938e-13   1.1479413560901115e-13   1.1417722036962452e-13   1.1417382268366254e-13   1.1357572472234949e-13   1.1357248022516493e-13   1.1299463802907929e-13   1.1299155492584582e-13   1.1243535827714716e-13   1.1243244440960591e-13   1.1189923105136290e-13   1.1189649388172190e-13   1.1138754627426709e-13   1.1138499286876238e-13   1.1090153512347065e-13   1.1089917213153352e-13   1.1044236704546554e-13   1.1044020069174099e-13   1.1001114695977764e-13   1.1000918302657533e-13   1.0960891258666797e-13   1.0960715639819488e-13   1.0923663195601592e-13   1.0923508837302549e-13   1.0889520107007414e-13   1.0889387447451059e-13   1.0858544174977203e-13   1.0858433603507268e-13   1.0830809965706051e-13   1.0830721821992854e-13   1.0806384249794171e-13   1.0806318823153723e-13   1.0785325841394674e-13   1.0785283369929938e-13   1.0767685456270962e-13   1.0767666126538091e-13   1.0753505590295430e-13   1.0753509536457452e-13   1.0742820416916012e-13   1.0742847720984604e-13   1.0735655704130938e-13   1.0735706395249233e-13   1.0732028754026706e-13   1.0732102808904923e-13   1.0731948358185204e-13   1.0732045700392949e-13   1.0735414780345984e-13   1.0735535281212704e-13   1.0742419751969319e-13   1.0742563230540482e-13   1.0752946494430415e-13   1.0753112717650365e-13   1.0766969757979316e-13   1.0767158441641435e-13   1.0784455882896720e-13   1.0784666691895354e-13   1.0805362880226731e-13   1.0805595429569880e-13   1.0829640532184645e-13   1.0829894387815180e-13   1.0857230513009734e-13   1.0857505192707372e-13   1.0888066529091208e-13   1.0888361503835699e-13   1.0922074477096095e-13   1.0922389172112350e-13   1.0959172623085130e-13   1.0959506419256227e-13   1.0999271796672254e-13   1.0999624032269422e-13   1.1042275606491512e-13   1.1042645578531598e-13   1.1088080669694508e-13   1.1088467636043141e-13   1.1136576860416543e-13   1.1136980041279808e-13   1.1187647573313877e-13   1.1188066153803458e-13   1.1241170001584391e-13   1.1241603133407446e-13   1.1297015431553522e-13   1.1297462235580258e-13   1.1355049549691830e-13   1.1355509118400372e-13   1.1415132763594070e-13   1.1415604163459658e-13   1.1477120534612238e-13   1.1477602809322743e-13   1.1540863722850233e-13   1.1541355895692078e-13   1.1606208941664637e-13   1.1606710018855388e-13   1.1672998924042647e-13   1.1673507898056204e-13   1.1741072894033845e-13   1.1741588746771435e-13   1.1810266950533288e-13   1.1810788657159110e-13   1.1880414454633171e-13   1.1880940987250187e-13   1.1951346424034276e-13   1.1951876756012725e-13   1.2022891932918290e-13   1.2023425042932667e-13   1.2094878513604724e-13   1.2095413390646443e-13   1.2167132563743294e-13   1.2167668211600526e-13   1.2239479752658854e-13   1.2240015195924933e-13   1.2311745429329164e-13   1.2312279718666997e-13   1.2383755029272597e-13   1.2384287248177305e-13   1.2455334480063671e-13   1.2455863751664782e-13   1.2526310602600075e-13   1.2526836097690222e-13   1.2596511509515192e-13   1.2597032455240661e-13   1.2665766995592289e-13   1.2666282685569792e-13   1.2733908922763718e-13   1.2734418728259815e-13   1.2800771594676914e-13   1.2801274978514597e-13   1.2866192120768242e-13   1.2866688652871542e-13   1.2930010767295384e-13   1.2930500143884349e-13   1.2992071292898016e-13   1.2992553359728291e-13   1.3052221265273387e-13   1.3052696046435485e-13   1.3110312354559336e-13   1.3110780089051304e-13   1.3166200600430122e-13   1.3166661788852769e-13   1.3219746643496137e-13   1.3220202109527997e-13   1.3270815913324048e-13   1.3271266885793679e-13   1.3319278758919195e-13   1.3319726983998677e-13   1.3365010501935715e-13   1.3365458400237375e-13   1.3407891382228138e-13   1.3408342274152425e-13   1.3447806350489231e-13   1.3448264788873919e-13   1.3484644632019995e-13   1.3485116908433558e-13   1.3518298941372230e-13   1.3518793882240570e-13   1.3548664148748843e-13   1.3549194413684196e-13   1.3575635074527916e-13   1.3576219348686808e-13   1.3599102929398157e-13   1.3599769743020206e-13   1.3618949934653604e-13   1.3619744405130923e-13   1.3635043038426054e-13   1.3636038320816971e-13   1.3647236399194893e-13   1.3648549186343915e-13   1.3655437141745195e-13   1.3657223859908324e-13   1.0829514243207462e-13   1.3662280530633087e-13   1.3659297082925448e-13   1.0824025957945996e-13   1.3657782930902581e-13   1.3657682124652302e-13   1.3652700579240894e-13   1.3652596935319758e-13   1.3644086994728988e-13   1.3643971056362757e-13   1.3631969972556097e-13   1.3631837509049584e-13   1.3616380013461513e-13   1.3616229705818858e-13   1.3597354515447226e-13   1.3597186296849658e-13   1.3574938968873656e-13   1.3574753254582653e-13   1.3549187156007393e-13   1.3548984538479318e-13   1.3520161041537669e-13   1.3519942180340800e-13   1.3487930577944846e-13   1.3487696163105377e-13   1.3452573490943051e-13   1.3452324232309420e-13   1.3414175056615068e-13   1.3413911682100741e-13   1.3372827874337152e-13   1.3372551130254566e-13   1.3328631627837247e-13   1.3328342280023445e-13   1.3281692837865938e-13   1.3281391672286729e-13   1.3232124600900978e-13   1.3231812423633449e-13   1.3180046315033695e-13   1.3179723952057696e-13   1.3125583391577747e-13   1.3125251688136114e-13   1.3068866954913128e-13   1.3068526774355052e-13   1.3010033527853676e-13   1.3009685750341556e-13   1.2949224705590418e-13   1.2948870226604725e-13   1.2886586815037473e-13   1.2886226543895710e-13   1.2822270567981988e-13   1.2821905425896843e-13   1.2756430697758525e-13   1.2756061615874065e-13   1.2689225591611753e-13   1.2688853509181220e-13   1.2620816908662452e-13   1.2620442771079318e-13   1.2551369196075732e-13   1.2550993952528524e-13   1.2481049492779340e-13   1.2480674094686554e-13   1.2410026930312294e-13   1.2409652328649267e-13   1.2338472327277395e-13   1.2338099470750644e-13   1.2266557779440146e-13   1.2266187612456487e-13   1.2194456247336966e-13   1.2194089707529680e-13   1.2122341142023712e-13   1.2121979158806648e-13   1.2050385906981897e-13   1.2050029398635803e-13   1.1978763603878796e-13   1.1978413476268460e-13   1.1907646495853902e-13   1.1907303639842636e-13   1.1837205633418371e-13   1.1836870923284968e-13   1.1767610444121978e-13   1.1767284735546362e-13   1.1699028325993837e-13   1.1698712453953805e-13   1.1631624243674216e-13   1.1631319020679410e-13   1.1565560332569696e-13   1.1565266547014228e-13   1.1500995509891164e-13   1.1500713924242218e-13   1.1438085091063533e-13   1.1437816439978293e-13   1.1376980416231757e-13   1.1376725405028511e-13   1.1317828487170710e-13   1.1317587790485948e-13   1.1260771612244840e-13   1.1260545872270802e-13   1.1205947066070871e-13   1.1205736891341150e-13   1.1153486756453551e-13   1.1153292720347180e-13   1.1103516908875304e-13   1.1103339548486545e-13   1.1056157762004338e-13   1.1055997576603917e-13   1.1011523278101119e-13   1.1011380728576426e-13   1.0969720868634261e-13   1.0969596376225624e-13   1.0930851136438645e-13   1.0930745081316822e-13   1.0895007632643303e-13   1.0894920354005770e-13   1.0862276631050407e-13   1.0862208425586648e-13   1.0832736921760956e-13   1.0832688043223241e-13   1.0806459620461969e-13   1.0806430279136066e-13   1.0783507997422303e-13   1.0783498359715599e-13   1.0763937325041252e-13   1.0763947512967198e-13   1.0747794744354230e-13   1.0747824835334239e-13   1.0735119152606645e-13   1.0735169178939574e-13   1.0725941108437567e-13   1.0726011057882105e-13   1.0720282758730955e-13   1.0720372573781319e-13   1.0718157784348925e-13   1.0718267363078204e-13   1.0719571370031337e-13   1.0719700565352526e-13   1.0724520187274523e-13   1.0724668808228762e-13   1.0732992405653078e-13   1.0733160217273253e-13   1.0744967720201954e-13   1.0745154444032011e-13   1.0760417400007786e-13   1.0760622715097804e-13   1.0779304356802422e-13   1.0779527899969741e-13   1.0801583234547938e-13   1.0801824601579716e-13   1.0827200518241828e-13   1.0827459264678376e-13   1.0856094662104939e-13   1.0856370304188063e-13   1.0888196236616482e-13   1.0888488252634085e-13   1.0923428096428500e-13   1.0923735927898087e-13   1.0961705564422485e-13   1.0962028617485157e-13   1.1002936634817999e-13   1.1003274281792379e-13   1.1047022193824019e-13   1.1047373774660012e-13   1.1093856256727692e-13   1.1094221080826676e-13   1.1143326222406782e-13   1.1143703570167573e-13   1.1195313141597923e-13   1.1195702266981104e-13   1.1249692002412636e-13   1.1250092134292115e-13   1.1306332029006445e-13   1.1306742373951669e-13   1.1365096993494383e-13   1.1365516737735207e-13   1.1425845542262547e-13   1.1426273854246113e-13   1.1488431531521140e-13   1.1488867564736950e-13   1.1552704377253231e-13   1.1553147272535440e-13   1.1618509413279492e-13   1.1618958301919003e-13   1.1685688258286578e-13   1.1686142265342990e-13   1.1754079193636170e-13   1.1754537440771545e-13   1.1823517546250223e-13   1.1823979155547347e-13   1.1893836079557765e-13   1.1894300176928964e-13   1.1964865388467578e-13   1.1965331107793256e-13   1.2036434300214286e-13   1.2036900787362743e-13   1.2108370277398605e-13   1.2108836694886953e-13   1.2180499824979357e-13   1.2180965356539645e-13   1.2252648895317466e-13   1.2253112751653503e-13   1.2324643297733272e-13   1.2325104721904451e-13   1.2396309102659023e-13   1.2396767376626463e-13   1.2467473046761365e-13   1.2467927498385682e-13   1.2537962932575313e-13   1.2538412943543256e-13   1.2607608024584165e-13   1.2608053039430087e-13   1.2676239437647335e-13   1.2676678973966922e-13   1.2743690520290422e-13   1.2744124180458853e-13   1.2809797226299105e-13   1.2810224711924097e-13   1.2874398477039581e-13   1.2874819605068627e-13   1.2937336510347498e-13   1.2937751233185747e-13   1.2998457214857720e-13   1.2998865644806423e-13   1.3057610445720364e-13   1.3058012885285771e-13   1.3114650320479365e-13   1.3115047300555347e-13   1.3169435489380437e-13   1.3169827818083320e-13   1.3221829375304585e-13   1.3222218201523689e-13   1.3271700377410891e-13   1.3272087274987735e-13   1.3318922028860419e-13   1.3319309109917558e-13   1.3363373095740383e-13   1.3363763166057625e-13   1.3404937603485178e-13   1.3405334379366779e-13   1.3443504767737554e-13   1.3443913184451293e-13   1.3478968805522946e-13   1.3479395463090978e-13   1.3511228605496535e-13   1.3511682421107815e-13   1.3540187258841599e-13   1.3540680426715719e-13   1.3565751560554089e-13   1.3566300941898350e-13   1.3587831927013415e-13   1.3588460944219207e-13   1.3606344203937156e-13   1.3607084942019186e-13   1.3621217790486828e-13   1.3622111509855764e-13   1.3632422411587525e-13   1.3633511690771319e-13   1.3640043755216204e-13   1.3641335615707783e-13   1.0813631401517172e-13   1.3645811361706983e-13   1.3627407759875775e-13   1.0793187918768168e-13   1.3624430231768706e-13   1.3624321130996485e-13   1.3617904635649237e-13   1.3617789683223925e-13   1.3607861613347719e-13   1.3607737614730856e-13   1.3594333686530794e-13   1.3594198013022473e-13   1.3577357309958804e-13   1.3577208587480954e-13   1.3556975031889116e-13   1.3556812806088487e-13   1.3533236659290100e-13   1.3533061004193296e-13   1.3506199718716650e-13   1.3506010985812585e-13   1.3475929553870426e-13   1.3475728237420479e-13   1.3442499252619330e-13   1.3442285923229219e-13   1.3405989493879998e-13   1.3405764767204029e-13   1.3366488355343949e-13   1.3366252877586854e-13   1.3324091097328545e-13   1.3323845538247521e-13   1.327889