<?xml version="1.0"?>
<VTKFile type="UnstructuredGrid"  version="0.1"  >
<UnstructuredGrid>
<Piece  NumberOfPoints="16641" NumberOfCells="32768">
<Points>
<DataArray  type="Float64"  NumberOfComponents="3"  format="ascii">0 0 0  0.0078125 0 0  0.015625 0 0  0.0234375 0 0  0.03125 0 0  0.0390625 0 0  0.046875 0 0  0.0546875 0 0  0.0625 0 0  0.0703125 0 0  0.078125 0 0  0.0859375 0 0  0.09375 0 0  0.1015625 0 0  0.109375 0 0  0.1171875 0 0  0.125 0 0  0.1328125 0 0  0.140625 0 0  0.1484375 0 0  0.15625 0 0  0.1640625 0 0  0.171875 0 0  0.1796875 0 0  0.1875 0 0  0.1953125 0 0  0.203125 0 0  0.2109375 0 0  0.21875 0 0  0.2265625 0 0  0.234375 0 0  0.2421875 0 0  0.25 0 0  0.2578125 0 0  0.265625 0 0  0.2734375 0 0  0.28125 0 0  0.2890625 0 0  0.296875 0 0  0.3046875 0 0  0.3125 0 0  0.3203125 0 0  0.328125 0 0  0.3359375 0 0  0.34375 0 0  0.3515625 0 0  0.359375 0 0  0.3671875 0 0  0.375 0 0  0.3828125 0 0  0.390625 0 0  0.3984375 0 0  0.40625 0 0  0.4140625 0 0  0.421875 0 0  0.4296875 0 0  0.4375 0 0  0.4453125 0 0  0.453125 0 0  0.4609375 0 0  0.46875 0 0  0.4765625 0 0  0.484375 0 0  0.4921875 0 0  0.5 0 0  0.5078125 0 0  0.515625 0 0  0.5234375 0 0  0.53125 0 0  0.5390625 0 0  0.546875 0 0  0.5546875 0 0  0.5625 0 0  0.5703125 0 0  0.578125 0 0  0.5859375 0 0  0.59375 0 0  0.6015625 0 0  0.609375 0 0  0.6171875 0 0  0.625 0 0  0.6328125 0 0  0.640625 0 0  0.6484375 0 0  0.65625 0 0  0.6640625 0 0  0.671875 0 0  0.6796875 0 0  0.6875 0 0  0.6953125 0 0  0.703125 0 0  0.7109375 0 0  0.71875 0 0  0.7265625 0 0  0.734375 0 0  0.7421875 0 0  0.75 0 0  0.7578125 0 0  0.765625 0 0  0.7734375 0 0  0.78125 0 0  0.7890625 0 0  0.796875 0 0  0.8046875 0 0  0.8125 0 0  0.8203125 0 0  0.828125 0 0  0.8359375 0 0  0.84375 0 0  0.8515625 0 0  0.859375 0 0  0.8671875 0 0  0.875 0 0  0.8828125 0 0  0.890625 0 0  0.8984375 0 0  0.90625 0 0  0.9140625 0 0  0.921875 0 0  0.9296875 0 0  0.9375 0 0  0.9453125 0 0  0.953125 0 0  0.9609375 0 0  0.96875 0 0  0.9765625 0 0  0.984375 0 0  0.9921875 0 0  1 0 0  0 0.0078125 0  0.0078125 0.0078125 0  0.015625 0.0078125 0  0.0234375 0.0078125 0  0.03125 0.0078125 0  0.0390625 0.0078125 0  0.046875 0.0078125 0  0.0546875 0.0078125 0  0.0625 0.0078125 0  0.0703125 0.0078125 0  0.078125 0.0078125 0  0.0859375 0.0078125 0  0.09375 0.0078125 0  0.1015625 0.0078125 0  0.109375 0.0078125 0  0.1171875 0.0078125 0  0.125 0.0078125 0  0.1328125 0.0078125 0  0.140625 0.0078125 0  0.1484375 0.0078125 0  0.15625 0.0078125 0  0.1640625 0.0078125 0  0.171875 0.0078125 0  0.1796875 0.0078125 0  0.1875 0.0078125 0  0.1953125 0.0078125 0  0.203125 0.0078125 0  0.2109375 0.0078125 0  0.21875 0.0078125 0  0.2265625 0.0078125 0  0.234375 0.0078125 0  0.2421875 0.0078125 0  0.25 0.0078125 0  0.2578125 0.0078125 0  0.265625 0.0078125 0  0.2734375 0.0078125 0  0.28125 0.0078125 0  0.2890625 0.0078125 0  0.296875 0.0078125 0  0.3046875 0.0078125 0  0.3125 0.0078125 0  0.3203125 0.0078125 0  0.328125 0.0078125 0  0.3359375 0.0078125 0  0.34375 0.0078125 0  0.3515625 0.0078125 0  0.359375 0.0078125 0  0.3671875 0.0078125 0  0.375 0.0078125 0  0.3828125 0.0078125 0  0.390625 0.0078125 0  0.3984375 0.0078125 0  0.40625 0.0078125 0  0.4140625 0.0078125 0  0.421875 0.0078125 0  0.4296875 0.0078125 0  0.4375 0.0078125 0  0.4453125 0.0078125 0  0.453125 0.0078125 0  0.4609375 0.0078125 0  0.46875 0.0078125 0  0.4765625 0.0078125 0  0.484375 0.0078125 0  0.4921875 0.0078125 0  0.5 0.0078125 0  0.5078125 0.0078125 0  0.515625 0.0078125 0  0.5234375 0.0078125 0  0.53125 0.0078125 0  0.5390625 0.0078125 0  0.546875 0.0078125 0  0.5546875 0.0078125 0  0.5625 0.0078125 0  0.5703125 0.0078125 0  0.578125 0.0078125 0  0.5859375 0.0078125 0  0.59375 0.0078125 0  0.6015625 0.0078125 0  0.609375 0.0078125 0  0.6171875 0.0078125 0  0.625 0.0078125 0  0.6328125 0.0078125 0  0.640625 0.0078125 0  0.6484375 0.0078125 0  0.65625 0.0078125 0  0.6640625 0.0078125 0  0.671875 0.0078125 0  0.6796875 0.0078125 0  0.6875 0.0078125 0  0.6953125 0.0078125 0  0.703125 0.0078125 0  0.7109375 0.0078125 0  0.71875 0.0078125 0  0.7265625 0.0078125 0  0.734375 0.0078125 0  0.7421875 0.0078125 0  0.75 0.0078125 0  0.7578125 0.0078125 0  0.765625 0.0078125 0  0.7734375 0.0078125 0  0.78125 0.0078125 0  0.7890625 0.0078125 0  0.796875 0.0078125 0  0.8046875 0.0078125 0  0.8125 0.0078125 0  0.8203125 0.0078125 0  0.828125 0.0078125 0  0.8359375 0.0078125 0  0.84375 0.0078125 0  0.8515625 0.0078125 0  0.859375 0.0078125 0  0.8671875 0.0078125 0  0.875 0.0078125 0  0.8828125 0.0078125 0  0.890625 0.0078125 0  0.8984375 0.0078125 0  0.90625 0.0078125 0  0.9140625 0.0078125 0  0.921875 0.0078125 0  0.9296875 0.0078125 0  0.9375 0.0078125 0  0.9453125 0.0078125 0  0.953125 0.0078125 0  0.9609375 0.0078125 0  0.96875 0.0078125 0  0.9765625 0.0078125 0  0.984375 0.0078125 0  0.9921875 0.0078125 0  1 0.0078125 0  0 0.015625 0  0.0078125 0.015625 0  0.015625 0.015625 0  0.0234375 0.015625 0  0.03125 0.015625 0  0.0390625 0.015625 0  0.046875 0.015625 0  0.0546875 0.015625 0  0.0625 0.015625 0  0.0703125 0.015625 0  0.078125 0.015625 0  0.0859375 0.015625 0  0.09375 0.015625 0  0.1015625 0.015625 0  0.109375 0.015625 0  0.1171875 0.015625 0  0.125 0.015625 0  0.1328125 0.015625 0  0.140625 0.015625 0  0.1484375 0.015625 0  0.15625 0.015625 0  0.1640625 0.015625 0  0.171875 0.015625 0  0.1796875 0.015625 0  0.1875 0.015625 0  0.1953125 0.015625 0  0.203125 0.015625 0  0.2109375 0.015625 0  0.21875 0.015625 0  0.2265625 0.015625 0  0.234375 0.015625 0  0.2421875 0.015625 0  0.25 0.015625 0  0.2578125 0.015625 0  0.265625 0.015625 0  0.2734375 0.015625 0  0.28125 0.015625 0  0.2890625 0.015625 0  0.296875 0.015625 0  0.3046875 0.015625 0  0.3125 0.015625 0  0.3203125 0.015625 0  0.328125 0.015625 0  0.3359375 0.015625 0  0.34375 0.015625 0  0.3515625 0.015625 0  0.359375 0.015625 0  0.3671875 0.015625 0  0.375 0.015625 0  0.3828125 0.015625 0  0.390625 0.015625 0  0.3984375 0.015625 0  0.40625 0.015625 0  0.4140625 0.015625 0  0.421875 0.015625 0  0.4296875 0.015625 0  0.4375 0.015625 0  0.4453125 0.015625 0  0.453125 0.015625 0  0.4609375 0.015625 0  0.46875 0.015625 0  0.4765625 0.015625 0  0.484375 0.015625 0  0.4921875 0.015625 0  0.5 0.015625 0  0.5078125 0.015625 0  0.515625 0.015625 0  0.5234375 0.015625 0  0.53125 0.015625 0  0.5390625 0.015625 0  0.546875 0.015625 0  0.5546875 0.015625 0  0.5625 0.015625 0  0.5703125 0.015625 0  0.578125 0.015625 0  0.5859375 0.015625 0  0.59375 0.015625 0  0.6015625 0.015625 0  0.609375 0.015625 0  0.6171875 0.015625 0  0.625 0.015625 0  0.6328125 0.015625 0  0.640625 0.015625 0  0.6484375 0.015625 0  0.65625 0.015625 0  0.6640625 0.015625 0  0.671875 0.015625 0  0.6796875 0.015625 0  0.6875 0.015625 0  0.6953125 0.015625 0  0.703125 0.015625 0  0.7109375 0.015625 0  0.71875 0.015625 0  0.7265625 0.015625 0  0.734375 0.015625 0  0.7421875 0.015625 0  0.75 0.015625 0  0.7578125 0.015625 0  0.765625 0.015625 0  0.7734375 0.015625 0  0.78125 0.015625 0  0.7890625 0.015625 0  0.796875 0.015625 0  0.8046875 0.015625 0  0.8125 0.015625 0  0.8203125 0.015625 0  0.828125 0.015625 0  0.8359375 0.015625 0  0.84375 0.015625 0  0.8515625 0.015625 0  0.859375 0.015625 0  0.8671875 0.015625 0  0.875 0.015625 0  0.8828125 0.015625 0  0.890625 0.015625 0  0.8984375 0.015625 0  0.90625 0.015625 0  0.9140625 0.015625 0  0.921875 0.015625 0  0.9296875 0.015625 0  0.9375 0.015625 0  0.9453125 0.015625 0  0.953125 0.015625 0  0.9609375 0.015625 0  0.96875 0.015625 0  0.9765625 0.015625 0  0.984375 0.015625 0  0.9921875 0.015625 0  1 0.015625 0  0 0.0234375 0  0.0078125 0.0234375 0  0.015625 0.0234375 0  0.0234375 0.0234375 0  0.03125 0.0234375 0  0.0390625 0.0234375 0  0.046875 0.0234375 0  0.0546875 0.0234375 0  0.0625 0.0234375 0  0.0703125 0.0234375 0  0.078125 0.0234375 0  0.0859375 0.0234375 0  0.09375 0.0234375 0  0.1015625 0.0234375 0  0.109375 0.0234375 0  0.1171875 0.0234375 0  0.125 0.0234375 0  0.1328125 0.0234375 0  0.140625 0.0234375 0  0.1484375 0.0234375 0  0.15625 0.0234375 0  0.1640625 0.0234375 0  0.171875 0.0234375 0  0.1796875 0.0234375 0  0.1875 0.0234375 0  0.1953125 0.0234375 0  0.203125 0.0234375 0  0.2109375 0.0234375 0  0.21875 0.0234375 0  0.2265625 0.0234375 0  0.234375 0.0234375 0  0.2421875 0.0234375 0  0.25 0.0234375 0  0.2578125 0.0234375 0  0.265625 0.0234375 0  0.2734375 0.0234375 0  0.28125 0.0234375 0  0.2890625 0.0234375 0  0.296875 0.0234375 0  0.3046875 0.0234375 0  0.3125 0.0234375 0  0.3203125 0.0234375 0  0.328125 0.0234375 0  0.3359375 0.0234375 0  0.34375 0.0234375 0  0.3515625 0.0234375 0  0.359375 0.0234375 0  0.3671875 0.0234375 0  0.375 0.0234375 0  0.3828125 0.0234375 0  0.390625 0.0234375 0  0.3984375 0.0234375 0  0.40625 0.0234375 0  0.4140625 0.0234375 0  0.421875 0.0234375 0  0.4296875 0.0234375 0  0.4375 0.0234375 0  0.4453125 0.0234375 0  0.453125 0.0234375 0  0.4609375 0.0234375 0  0.46875 0.0234375 0  0.4765625 0.0234375 0  0.484375 0.0234375 0  0.4921875 0.0234375 0  0.5 0.0234375 0  0.5078125 0.0234375 0  0.515625 0.0234375 0  0.5234375 0.0234375 0  0.53125 0.0234375 0  0.5390625 0.0234375 0  0.546875 0.0234375 0  0.5546875 0.0234375 0  0.5625 0.0234375 0  0.5703125 0.0234375 0  0.578125 0.0234375 0  0.5859375 0.0234375 0  0.59375 0.0234375 0  0.6015625 0.0234375 0  0.609375 0.0234375 0  0.6171875 0.0234375 0  0.625 0.0234375 0  0.6328125 0.0234375 0  0.640625 0.0234375 0  0.6484375 0.0234375 0  0.65625 0.0234375 0  0.6640625 0.0234375 0  0.671875 0.0234375 0  0.6796875 0.0234375 0  0.6875 0.0234375 0  0.6953125 0.0234375 0  0.703125 0.0234375 0  0.7109375 0.0234375 0  0.71875 0.0234375 0  0.7265625 0.0234375 0  0.734375 0.0234375 0  0.7421875 0.0234375 0  0.75 0.0234375 0  0.7578125 0.0234375 0  0.765625 0.0234375 0  0.7734375 0.0234375 0  0.78125 0.0234375 0  0.7890625 0.0234375 0  0.796875 0.0234375 0  0.8046875 0.0234375 0  0.8125 0.0234375 0  0.8203125 0.0234375 0  0.828125 0.0234375 0  0.8359375 0.0234375 0  0.84375 0.0234375 0  0.8515625 0.0234375 0  0.859375 0.0234375 0  0.8671
[...]
<CellData  Scalars="f_145491"> 
<DataArray  type="Float64"  Name="f_145491"  format="ascii">2.6315610628322345e-01   2.6315610557285563e-01   2.6286161831727628e-01   2.6861096672679519e-01   2.6218251256754566e-01   2.6800469291605405e-01   2.6117446999450339e-01   2.6706945903189921e-01   2.5983807134669723e-01   2.6580301428204905e-01   2.5817586251142460e-01   2.6420444699811407e-01   2.5619265690854320e-01   2.6227685454481098e-01   2.5389481562631866e-01   2.6002591144578796e-01   2.5128973253972153e-01   2.5745878629438657e-01   2.4838555341646099e-01   2.5458359056061658e-01   2.4519102985071378e-01   2.5140912020218559e-01   2.4171544512544818e-01   2.4794473376646520e-01   2.3796857562760873e-01   2.4420029691456155e-01   2.3396067137387108e-01   2.4018615510417451e-01   2.2970244358559996e-01   2.3591312079505683e-01   2.2520505556828188e-01   2.3139246456482238e-01   2.2048011381866289e-01   2.2663590807578729e-01   2.1553965731791536e-01   2.2165561416672533e-01   2.1039614416841412e-01   2.1646417597896661e-01   2.0506243663141593e-01   2.1107460248736831e-01   1.9955178216146677e-01   2.0550030123453500e-01   1.9387779324896937e-01   1.9975505802527133e-01   1.8805442329913358e-01   1.9385301450010092e-01   1.8209594203513532e-01   1.8780864263741959e-01   1.7601690736342979e-01   1.8163671805278411e-01   1.6983213687099161e-01   1.7535229009032494e-01   1.6355667621861142e-01   1.6897065133537656e-01   1.5720576797703939e-01   1.6250730512766293e-01   1.5079481759003605e-01   1.5597793244046565e-01   1.4433935999628031e-01   1.4939835645474503e-01   1.3785502389480581e-01   1.4278450770679552e-01   1.3135749676038530e-01   1.3615238767794086e-01   1.2486248838406484e-01   1.2951803225759656e-01   1.1838569447047098e-01   1.2289747409710994e-01   1.1194276057030550e-01   1.1630670624290453e-01   1.0554924525369536e-01   1.0976164362107041e-01   9.9220582376899666e-02   1.0327808653421790e-01   9.2972046391197355e-02   9.6871682399513076e-02   8.6818714535752919e-02   9.0557889710583067e-02   8.0775432212769505e-02   8.4351940311749016e-02   7.4856776856096902e-02   7.8268804024952218e-02   6.9077023814263200e-02   7.2323152273829003e-02   6.3450111400345219e-02   6.6529323358820266e-02   5.7989608814794050e-02   6.0901288244737728e-02   5.2708682288713803e-02   5.5452617239264618e-02   4.7620064736668709e-02   5.0196446915947809e-02   4.2736024350708446e-02   4.5145449426406248e-02   3.8068335869485097e-02   4.0311801382984590e-02   3.3628251922665983e-02   3.5707155270594620e-02   2.9426476142223892e-02   3.1342610993195616e-02   2.5473137533623919e-02   2.7228689501937988e-02   2.1777766180544094e-02   2.3375307480421811e-02   1.8349270088015818e-02   1.9791753699411552e-02   1.5195914284600457e-02   1.6486666149232269e-02   1.2325300411719304e-02   1.3468012094335999e-02   9.7443490525545885e-03   1.0743068206115000e-02   7.4592825698023262e-03   8.3184036388796283e-03   5.4756106478548675e-03   6.1998639008904741e-03   3.7981166803751358e-03   4.3925569789454097e-03   2.4308466747546878e-03   2.9008410960551351e-03   1.3770992508201363e-03   1.7283142447370615e-03   6.3941795988403107e-04   8.7780553078434156e-04   2.1958510830315429e-04   3.5136845767672303e-04   1.1861760810221246e-04   1.5027602558161744e-04   3.3676454699425114e-04   2.7501774498452878e-04   8.7350673231731727e-04   7.2529850536166374e-04   1.7275579726831883e-03   1.5000393922956310e-03   2.8968682656135124e-03   2.5973803254542506e-03   4.3786289220081320e-03   4.0146846368550272e-03   6.1692793874273469e-03   5.7485455909527770e-03   8.2645160339240974e-03   7.7947945995618193e-03   1.0659302471708591e-02   1.0148511491984077e-02   1.3347882199388069e-02   1.2804036389746276e-02   1.6323792354965300e-02   1.5754983675163904e-02   1.9579879755561799e-02   1.8994257377432298e-02   2.3108318023630458e-02   2.2514068665192101e-02   2.6900627270980918e-02   2.6305954445579108e-02   3.0947694295432808e-02   3.0360798765510701e-02   3.5239795402874578e-02   3.4668854140385091e-02   3.9766619641454948e-02   3.9219766318321934e-02   4.4517295019551116e-02   4.4002598664228343e-02   4.9480414222129884e-02   4.9005859943817356e-02   5.4644063782710674e-02   5.4217531712742788e-02   5.9995852289146237e-02   5.9625098398814858e-02   6.5522942445449414e-02   6.5215577564840241e-02   7.1212081551719764e-02   7.0975552761764496e-02   7.7049635564891444e-02   7.6891205686939870e-02   8.3021622718903759e-02   8.2948351703108630e-02   8.9113748484089469e-02   8.9132473751659683e-02   9.5311441705178593e-02   9.5428759865828688e-02   1.0159989172336793e-01   1.0182213949347717e-01   1.0796408531193005e-01   1.0829732192199143e-01   1.1438884596239843e-01   1.1483883431555715e-01   1.2085887276054048e-01   1.2143106237385159e-01   1.2735877973610341e-01   1.2805828876943473e-01   1.3387313659181707e-01   1.3470473507193270e-01   1.4038650949214831e-01   1.4135460164792252e-01   1.4688350232263558e-01   1.4799211028088172e-01   1.5334879807648574e-01   1.5460154490185332e-01   1.5976720086521612e-01   1.6116729451771541e-01   1.6612367934729758e-01   1.6767389494580073e-01   1.7240340695891798e-01   1.7410607182705073e-01   1.7859180722777684e-01   1.8044878291154354e-01   1.8467459418803914e-01   1.8668726119843548e-01   1.9063781750755543e-01   1.9280705681640409e-01   1.9646790331012687e-01   1.9879408082577277e-01   2.0215169937437691e-01   2.0463464672836565e-01   2.0767651630438974e-01   2.1031551368602427e-01   2.1303017204893337e-01   2.1582392836598094e-01   2.1820103424386539e-01   2.2114766751114692e-01   2.2317806482019201e-01   2.2627507963172894e-01   2.2795086369442852e-01   2.3119512838599077e-01   2.3250971498984116e-01   2.3589743393977497e-01   2.3684563445899029e-01   2.4037231827159125e-01   2.4095042229309274e-01   2.4461084958332685e-01   2.4481672043067718e-01   2.4860489279120457e-01   2.4843808285429539e-01   2.5234716415550973e-01   2.5180906226110084e-01   2.5583129876267158e-01   2.5492532917787714e-01   2.5905193430075918e-01   2.5778384138755045e-01   2.6200482952767851e-01   2.6038310691938082e-01   2.6468703864885401e-01   2.6272361090501678e-01   2.6709719459848175e-01   2.6480855238271506e-01   2.6923600446336254e-01   2.6664516612838141e-01   2.7110720847631037e-01   2.6824709111403844e-01   2.7271964834316026e-01   2.6963798310686066e-01   2.7409227296353844e-01   2.7088240721393037e-01   2.7526754733078757e-01   1.6071721361989580e-01   2.7825856081212991e-01   2.6861096705388854e-01   2.6286161828938553e-01   2.6813289000920965e-01   2.6813289022533071e-01   2.6729614830872950e-01   2.6742235599680214e-01   2.6613774535682705e-01   2.6636358376894598e-01   2.6465483840116222e-01   2.6497480787609184e-01   2.6284742178930437e-01   2.6326183128951441e-01   2.6071847709402957e-01   2.6122778510667727e-01   2.5827322617031406e-01   2.5887677996657166e-01   2.5551844659548684e-01   2.5621456980901386e-01   2.5246202163086690e-01   2.5324833432995375e-01   2.4911267276839333e-01   2.4998635221304591e-01   2.4547980278652207e-01   2.4643775294806036e-01   2.4157340653083878e-01   2.4261235634356745e-01   2.3740401649487264e-01   2.3852057445748956e-01   2.3298266965885472e-01   2.3417335175523055e-01   2.2832088355808008e-01   2.2958212656302113e-01   2.2343063821002515e-01   2.2475880451505156e-01   2.1832435813658455e-01   2.1971573732338251e-01   2.1301489502719212e-01   2.1446570351523922e-01   2.0751550855256035e-01   2.0902188925842419e-01   2.0183984594689067e-01   2.0339786824318495e-01   1.9600191837923703e-01   1.9760757943723758e-01   1.9001607692294198e-01   1.9166530337283813e-01   1.8389698471276900e-01   1.8558563643049300e-01   1.7765958965180692e-01   1.7938346324875723e-01   1.7131909251134628e-01   1.7307392728563090e-01   1.6489091668301425e-01   1.6667239997314243e-01   1.5839067395989018e-01   1.6019444848140990e-01   1.5183413148492322e-01   1.5365580243907787e-01   1.4523717595399893e-01   1.4707231919122091e-01   1.3861577803758335e-01   1.4045994858317101e-01   1.3198595602329274e-01   1.3383469715106283e-01   1.2536373934663661e-01   1.2721259125024470e-01   1.1876513030909788e-01   1.2060964058331231e-01   1.1220606867908325e-01   1.1404180057706791e-01   1.0570239223126186e-01   1.0752493576745167e-01   9.9269801037010552e-02   1.0107478187606439e-01   9.2923819352661891e-02   9.4706909504698358e-02   8.6679759713492871e-02   8.8436686643659321e-02   8.0552685580403668e-02   8.2279242858154480e-02   7.4557376426038088e-02   7.6249432824037441e-02   6.8708291803490126e-02   7.0361801367688839e-02   6.3019537251392171e-02   6.4630548519978764e-02   5.7504830295845480e-02   5.9069495672300451e-02   5.2177468009901772e-02   5.3692052644102976e-02   4.7050294576436703e-02   4.8511185561852042e-02   4.2135671227746842e-02   4.3539385750240078e-02   3.7445445838230292e-02   3.8788639899488879e-02   3.2990925362873451e-02   3.4270401080250742e-02   2.8782847718024203e-02   2.9995561666102101e-02   2.4831357062591677e-02   2.5974426945997917e-02   2.1145978539663872e-02   2.2216690360514643e-02   1.7735596086122490e-02   1.8731410328512877e-02   1.4608430625278982e-02   1.5526988604231688e-02   1.1772020587893671e-02   1.2611149834266420e-02   9.2332036605113580e-03   9.9909233111853853e-03   6.9981005669124139e-03   7.6726258261242998e-03   5.0721001724477154e-03   5.6618467436498846e-03   3.4598466476638396e-03   3.9634344064553599e-03   2.1652283487953155e-03   2.5814845864462672e-03   1.1913684995227070e-03   1.5193307190935305e-03   5.4061767808830617e-04   7.7953583104598619e-04   2.1454825906176667e-04   3.6388648656275228e-04   2.1395066103517549e-04   2.7338849389812677e-04   5.3883152773290493e-04   5.0826458009582784e-04   1.1884137554420773e-03   1.0679539080431370e-03   2.1611384779977000e-03   1.9511134299975530e-03   3.4546689169714043e-03   3.1556213405939202e-03   5.0658959632871054e-03   4.6785821477947423e-03   6.9909460262921521e-03   6.5163337537234422e-03   9.2251902050455425e-03   8.6644564225575541e-03   1.1763255830364118e-02   1.1117783524394355e-02   1.4599039247382610e-02   1.3870414102154586e-02   1.7725721028919280e-02   1.6915727164777135e-02   2.1135782337058207e-02   2.0246397921701974e-02   2.4821023367635409e-02   2.3854415583392147e-02   2.8772583091012598e-02   2.7731102785136515e-02   3.2980961481567241e-02   3.1867136728269442e-02   3.7436041848588814e-02   3.6252571990591828e-02   4.2127116449861578e-02   4.0876864766054351e-02   4.7042911737707457e-02   4.5728898619260952e-02   5.2171616998872218e-02   5.0797011698957360e-02   5.7500912401284285e-02   5.6069025004360951e-02   6.3017999943476982e-02   6.1532272686866771e-02   6.8709634406925735e-02   6.7173632939658071e-02   7.4562156381479089e-02   7.2979560084059855e-02   8.0561525881021584e-02   7.8936118417314891e-02   8.6693357503100296e-02   8.5029016322165668e-02   9.2942955360497806e-02   9.1243641750625493e-02   9.9295350762636667e-02   9.7565098682788981e-02   1.0573533887698999e-01   1.0397824419746536e-01   1.1224751775302175e-01   1.1046772665464623e-01   1.1881632643591647e-01   1.1701802401041134e-01   1.2542608513097808e-01   1.2361348314412433e-01   1.3206103510377157e-01   1.3023836025119853e-01   1.3870537954008821e-01   1.3687686039190222e-01   1.4534332387780222e-01   1.4351317891842030e-01   1.5195911799849604e-01   1.5013154215446750e-01   1.5853709723687343e-01   1.5671624927793426e-01   1.6506172482638484e-01   1.6325171361461369e-01   1.7151763335727985e-01   1.6972250459134677e-01   1.7788966720436764e-01   1.7611338971478496e-01   1.8416292457363925e-01   1.8240937662193707e-01   1.9032279983209258e-01   1.8859575480842569e-01   1.9635502513657299e-01   1.9465813781234134e-01   2.0224571278430717e-01   2.0058250468495345e-01   2.0798139627315795e-01   2.0635524158430890e-01   2.1354907216740987e-01   2.1196318315747723e-01   2.1893624063938852e-01   2.1739365323423632e-01   2.2413094673200742e-01   2.2263450561605644e-01   2.2912181988248231e-01   2.2767416395142062e-01   2.3389811462920762e-01   2.3250166187933230e-01   2.3844974932889881e-01   2.3710668236696517e-01   2.4276734672770600e-01   2.4147959741641695e-01   2.4684227287478955e-01   2.4561150776568735e-01   2.5066667893531014e-01   2.4949428462995049e-01   2.5423354361555611e-01   2.5312061379314726e-01   2.5753672108794196e-01   2.5648404554892679e-01   2.6057099483878660e-01   2.5957905612052651e-01   2.6333214631819368e-01   2.6240113026894507e-01   2.6581704575923587e-01   2.6494688498640334e-01   2.6802379110502400e-01   2.6721427738037706e-01   2.6995195675060751e-01   2.6920299065515735e-01   2.7160317196971151e-01   2.7091521182618528e-01   2.7298287498807022e-01   2.7235727353851530e-01   2.7410669549501832e-01   2.7354304514718342e-01   2.7502565209878904e-01   2.7449971269817230e-01   2.7088240776496869e-01   2.7526754895367839e-01   2.6800469401694182e-01   2.6218251318515667e-01   2.6742235650869889e-01   2.6729614909751254e-01   2.6648224157452427e-01   2.6648224163431861e-01   2.6520921161466343e-01   2.6532130168129575e-01   2.6361182145112277e-01   2.6382594057750602e-01   2.6169393534575713e-01   2.6200448094490808e-01   2.5945955369085305e-01   2.5986368723934145e-01   2.5691384924225869e-01   2.5740986779270209e-01   2.5406326984614075e-01   2.5464965163106934e-01   2.5091538811614350e-01   2.5159038593491345e-01   2.4747871900804386e-01   2.4824024885397281e-01   2.4376256773950386e-01   2.4460822271256616e-01   2.3977691939165691e-01   2.4070401950028156e-01   2.3553236074609959e-01   2.3653800436085931e-01   2.3104002604372700e-01   2.3212113059899320e-01   2.2631155641955947e-01   2.2746488914174842e-01   2.2135906964955104e-01   2.2258126759812352e-01   2.1619513353352732e-01   2.1748271806185585e-01   2.1083274221036977e-01   2.1218212834668440e-01   2.0528529242980392e-01   2.0669279632250387e-01   1.9956655984855864e-01   2.0102840400142083e-01   1.9369067381914482e-01   1.9520299248933548e-01   1.8767209145055999e-01   1.8923093492866142e-01   1.8152556883400897e-01   1.8312690936809956e-01   1.7526613313374623e-01   1.7690586958305632e-01   1.6890905045425739e-01   1.7058301507768134e-01   1.6246979500587530e-01   1.6417375953243787e-01   1.5596401503778401e-01   1.5769369821234902e-01   1.4940749960252461e-01   1.5115857421747525e-01   1.4281614265219458e-01   1.4458424422263816e-01   1.3620590802955618e-01   1.3798664286053428e-01   1.2959279286076461e-01   1.3138174718938483e-01   1.2299279085043514e-01   1.2478553970839786e-01   1.1642185572182419e-01   1.1821397240567226e-01   1.0989586323966290e-01   1.1168292912556806e-01   1.0343057504856124e-01   1.0520818914865651e-01   9.7041601208530059e-02   9.8805389677607214e-02   9.0744363398873734e-02   9.2489989825955854e-02   8.4554058320513076e-02   8.6277233275242018e-02   7.8485621678398065e-02   8.0182113081380013e-02   7.2553693091527302e-02   7.4219335375293946e-02   6.6772580579654670e-02   6.8403284844408233e-02   6.1156227035252975e-02   6.2747990166284906e-02   5.5718176370187368e-02   5.7267090877641889e-02   5.0471541569816189e-02   5.1973804456770495e-02   4.5428973136528633e-02   4.6880895056690811e-02   4.0602628870752472e-02   4.2000642632093292e-02   3.6004144470911062e-02   3.7344813870747957e-02   3.1644606139977174e-02   3.2924633647517090e-02   2.7534523434573802e-02   2.8750758454240008e-02   2.3683804619430340e-02   2.4833250500836183e-02   2.0101732151213747e-02   2.1181553990542980e-02   1.6796941365793558e-02   1.7804471992759974e-02   1.3777398687676107e-02   1.4710145685175384e-02   1.1050383536095368e-02   1.1906034650020561e-02   8.6224699737041006e-03   9.3988990240332117e-03   6.4995115069640622e-03   7.1947831523844468e-03   4.6866267237507314e-03   5.2990012679132951e-03   3.1881872235594295e-03   3.7161245912939560e-03   2.0078069661398066e-03   2.4499704675725949e-03   1.1483337486922951e-03   1.5035931653038619e-03   6.1184232096089309e-04   8.7927659255696141e-04   3.9962945024363559e-04   5.7852882276862561e-04   5.1221088936438132e-04   6.0207854990653148e-04   9.4932016094758113e-04   9.4987334828579967e-04   1.7099092716911122e-03   1.6210798930459168e-03   2.7921512991866170e-03   2.6140859927437730e-03   4.1934448812193329e-03   3.9265045505528342e-03   5.9104205721183583e-03   5.5551794352290936e-03   7.9389490257291886e-03   7.4961930650478351e-03   1.0274150996543809e-02   9.7448760479214840e-03   1.2910409400304742e-02   1.2295818405468733e-02   1.5841382681555022e-02   1.5142882863538584e-02   1.9060020468677701e-02   1.8279219579177323e-02   2.2558580563186777e-02   2.1697283016053535e-02   2.6328648037574176e-02   2.5388849970958804e-02   3.0361155270564131e-02   2.9345039914259529e-02   3.4646404406160111e-02   3.3556336308700578e-02   3.9174090834923153e-02   3.8012609959182403e-02   4.3933328344378020e-02   4.2703143476523459e-02   4.8912675655934913e-02   4.7616657656141703e-02   5.4100164392505638e-02   5.2741338806535761e-02   5.9483328441161991e-02   5.8064867688874290e-02   6.5049234398937686e-02   6.3574449577854436e-02   7.0784513220508757e-02   6.9256845825799065e-02   7.6675393504063549e-02   7.5098405990328618e-02   8.2707734819830681e-02   8.1085101844343518e-02   8.8867063159494011e-02   8.7202561474664125e-02   9.5138606458997840e-02   9.3436105265737382e-02   1.0150733163475170e-01   9.9770781993649207e-02   1.0795798153900642e-01   1.0619140602831328e-01   1.1447511389861918e-01   1.1268259543811295e-01   1.2104313942037880e-01   1.1922881032023495e-01   1.2764636171619023e-01   1.2581439212153278e-01   1.3426901683841694e-01   1.3242360319607172e-01   1.4089531398883284e-01   1.3904066691365569e-01   1.4750947589642996e-01   1.4564980829957627e-01   1.5409578001884472e-01   1.5223529444388742e-01   1.6063859937895938e-01   1.5878147633068115e-01   1.6712244453262859e-01   1.6527282898143755e-01   1.7353200446170799e-01   1.7169399354710635e-01   1.7985218820301091e-01   1.7802981832868034e-01   1.8606816633248088e-01   1.8426540053639107e-01   1.9216541221163291e-01   1.9038612659935386e-01   1.9812974294503327e-01   1.9637771443880522e-01   2.0394736034294123e-01   2.0222625343707845e-01   2.0960489096257251e-01   2.0791824536180928e-01   2.1508942662878655e-01   2.1344064421280226e-01   2.2038856292780365e-01   2.1878089648156504e-01   2.2549043868423224e-01   2.2392697954335722e-01   2.3038377301873494e-01   2.2886744094244318e-01   2.3505790273666743e-01   2.3359143561694021e-01   2.3950281774303214e-01   2.3808876393021025e-01   2.4370919608741928e-01   2.4234990781582302e-01   2.4766843676419928e-01   2.4636606809239148e-01   2.5137269353086794e-01   2.5012920149102646e-01   2.5481490661164868e-01   2.5363206068966360e-01   2.5798883781871462e-01   2.5686823849240825e-01   2.6088911061575193e-01   2.5983222462874439e-01   2.6351126651836043e-01   2.6251948300529981e-01   2.6585186130259364e-01   2.6492657562984939e-01   2.6790866215263520e-01   2.6705137621592673e-01   2.6968110687569757e-01   2.6889346406482678e-01   2.7117145201976828e-01   2.7045486278692377e-01   2.7238767658442647e-01   2.7174136981409008e-01   2.7335042721192454e-01   2.7276457382520158e-01   2.7410669686054256e-01   2.7354304668117796e-01   2.6963798488448293e-01   2.7409227608489745e-01   2.6706946091506828e-01   2.6117447117373765e-01   2.6636358501460372e-01   2.6613774671720197e-01   2.6532130232720313e-01   2.6520921225769550e-01   2.6394214528449289e-01   2.6394214523793363e-01   2.6223769355764265e-01   2.6234236750865836e-01   2.6021397639114119e-01   2.6041785942537227e-01   2.5787659795390350e-01   2.5817585559021516e-01   2.5523177062312169e-01   2.5562359115003719e-01   2.5228651704549548e-01   2.5276864211132194e-01   2.4904868464405927e-01   2.4961906741389395e-01   2.4552690538924593e-01   2.4618349124018407e-01   2.4173053725694238e-01   2.4247114385987820e-01   2.3766960332986467e-01   2.3849186821831792e-01   2.3335473614561822e-01   2.3425610313095369e-01   2.287971