<?xml version="1.0"?>
<VTKFile type="UnstructuredGrid"  version="0.1"  >
<UnstructuredGrid>
<Piece  NumberOfPoints="16641" NumberOfCells="32768">
<Points>
<DataArray  type="Float64"  NumberOfComponents="3"  format="ascii">0 0 0  0.0078125 0 0  0.015625 0 0  0.0234375 0 0  0.03125 0 0  0.0390625 0 0  0.046875 0 0  0.0546875 0 0  0.0625 0 0  0.0703125 0 0  0.078125 0 0  0.0859375 0 0  0.09375 0 0  0.1015625 0 0  0.109375 0 0  0.1171875 0 0  0.125 0 0  0.1328125 0 0  0.140625 0 0  0.1484375 0 0  0.15625 0 0  0.1640625 0 0  0.171875 0 0  0.1796875 0 0  0.1875 0 0  0.1953125 0 0  0.203125 0 0  0.2109375 0 0  0.21875 0 0  0.2265625 0 0  0.234375 0 0  0.2421875 0 0  0.25 0 0  0.2578125 0 0  0.265625 0 0  0.2734375 0 0  0.28125 0 0  0.2890625 0 0  0.296875 0 0  0.3046875 0 0  0.3125 0 0  0.3203125 0 0  0.328125 0 0  0.3359375 0 0  0.34375 0 0  0.3515625 0 0  0.359375 0 0  0.3671875 0 0  0.375 0 0  0.3828125 0 0  0.390625 0 0  0.3984375 0 0  0.40625 0 0  0.4140625 0 0  0.421875 0 0  0.4296875 0 0  0.4375 0 0  0.4453125 0 0  0.453125 0 0  0.4609375 0 0  0.46875 0 0  0.4765625 0 0  0.484375 0 0  0.4921875 0 0  0.5 0 0  0.5078125 0 0  0.515625 0 0  0.5234375 0 0  0.53125 0 0  0.5390625 0 0  0.546875 0 0  0.5546875 0 0  0.5625 0 0  0.5703125 0 0  0.578125 0 0  0.5859375 0 0  0.59375 0 0  0.6015625 0 0  0.609375 0 0  0.6171875 0 0  0.625 0 0  0.6328125 0 0  0.640625 0 0  0.6484375 0 0  0.65625 0 0  0.6640625 0 0  0.671875 0 0  0.6796875 0 0  0.6875 0 0  0.6953125 0 0  0.703125 0 0  0.7109375 0 0  0.71875 0 0  0.7265625 0 0  0.734375 0 0  0.7421875 0 0  0.75 0 0  0.7578125 0 0  0.765625 0 0  0.7734375 0 0  0.78125 0 0  0.7890625 0 0  0.796875 0 0  0.8046875 0 0  0.8125 0 0  0.8203125 0 0  0.828125 0 0  0.8359375 0 0  0.84375 0 0  0.8515625 0 0  0.859375 0 0  0.8671875 0 0  0.875 0 0  0.8828125 0 0  0.890625 0 0  0.8984375 0 0  0.90625 0 0  0.9140625 0 0  0.921875 0 0  0.9296875 0 0  0.9375 0 0  0.9453125 0 0  0.953125 0 0  0.9609375 0 0  0.96875 0 0  0.9765625 0 0  0.984375 0 0  0.9921875 0 0  1 0 0  0 0.0078125 0  0.0078125 0.0078125 0  0.015625 0.0078125 0  0.0234375 0.0078125 0  0.03125 0.0078125 0  0.0390625 0.0078125 0  0.046875 0.0078125 0  0.0546875 0.0078125 0  0.0625 0.0078125 0  0.0703125 0.0078125 0  0.078125 0.0078125 0  0.0859375 0.0078125 0  0.09375 0.0078125 0  0.1015625 0.0078125 0  0.109375 0.0078125 0  0.1171875 0.0078125 0  0.125 0.0078125 0  0.1328125 0.0078125 0  0.140625 0.0078125 0  0.1484375 0.0078125 0  0.15625 0.0078125 0  0.1640625 0.0078125 0  0.171875 0.0078125 0  0.1796875 0.0078125 0  0.1875 0.0078125 0  0.1953125 0.0078125 0  0.203125 0.0078125 0  0.2109375 0.0078125 0  0.21875 0.0078125 0  0.2265625 0.0078125 0  0.234375 0.0078125 0  0.2421875 0.0078125 0  0.25 0.0078125 0  0.2578125 0.0078125 0  0.265625 0.0078125 0  0.2734375 0.0078125 0  0.28125 0.0078125 0  0.2890625 0.0078125 0  0.296875 0.0078125 0  0.3046875 0.0078125 0  0.3125 0.0078125 0  0.3203125 0.0078125 0  0.328125 0.0078125 0  0.3359375 0.0078125 0  0.34375 0.0078125 0  0.3515625 0.0078125 0  0.359375 0.0078125 0  0.3671875 0.0078125 0  0.375 0.0078125 0  0.3828125 0.0078125 0  0.390625 0.0078125 0  0.3984375 0.0078125 0  0.40625 0.0078125 0  0.4140625 0.0078125 0  0.421875 0.0078125 0  0.4296875 0.0078125 0  0.4375 0.0078125 0  0.4453125 0.0078125 0  0.453125 0.0078125 0  0.4609375 0.0078125 0  0.46875 0.0078125 0  0.4765625 0.0078125 0  0.484375 0.0078125 0  0.4921875 0.0078125 0  0.5 0.0078125 0  0.5078125 0.0078125 0  0.515625 0.0078125 0  0.5234375 0.0078125 0  0.53125 0.0078125 0  0.5390625 0.0078125 0  0.546875 0.0078125 0  0.5546875 0.0078125 0  0.5625 0.0078125 0  0.5703125 0.0078125 0  0.578125 0.0078125 0  0.5859375 0.0078125 0  0.59375 0.0078125 0  0.6015625 0.0078125 0  0.609375 0.0078125 0  0.6171875 0.0078125 0  0.625 0.0078125 0  0.6328125 0.0078125 0  0.640625 0.0078125 0  0.6484375 0.0078125 0  0.65625 0.0078125 0  0.6640625 0.0078125 0  0.671875 0.0078125 0  0.6796875 0.0078125 0  0.6875 0.0078125 0  0.6953125 0.0078125 0  0.703125 0.0078125 0  0.7109375 0.0078125 0  0.71875 0.0078125 0  0.7265625 0.0078125 0  0.734375 0.0078125 0  0.7421875 0.0078125 0  0.75 0.0078125 0  0.7578125 0.0078125 0  0.765625 0.0078125 0  0.7734375 0.0078125 0  0.78125 0.0078125 0  0.7890625 0.0078125 0  0.796875 0.0078125 0  0.8046875 0.0078125 0  0.8125 0.0078125 0  0.8203125 0.0078125 0  0.828125 0.0078125 0  0.8359375 0.0078125 0  0.84375 0.0078125 0  0.8515625 0.0078125 0  0.859375 0.0078125 0  0.8671875 0.0078125 0  0.875 0.0078125 0  0.8828125 0.0078125 0  0.890625 0.0078125 0  0.8984375 0.0078125 0  0.90625 0.0078125 0  0.9140625 0.0078125 0  0.921875 0.0078125 0  0.9296875 0.0078125 0  0.9375 0.0078125 0  0.9453125 0.0078125 0  0.953125 0.0078125 0  0.9609375 0.0078125 0  0.96875 0.0078125 0  0.9765625 0.0078125 0  0.984375 0.0078125 0  0.9921875 0.0078125 0  1 0.0078125 0  0 0.015625 0  0.0078125 0.015625 0  0.015625 0.015625 0  0.0234375 0.015625 0  0.03125 0.015625 0  0.0390625 0.015625 0  0.046875 0.015625 0  0.0546875 0.015625 0  0.0625 0.015625 0  0.0703125 0.015625 0  0.078125 0.015625 0  0.0859375 0.015625 0  0.09375 0.015625 0  0.1015625 0.015625 0  0.109375 0.015625 0  0.1171875 0.015625 0  0.125 0.015625 0  0.1328125 0.015625 0  0.140625 0.015625 0  0.1484375 0.015625 0  0.15625 0.015625 0  0.1640625 0.015625 0  0.171875 0.015625 0  0.1796875 0.015625 0  0.1875 0.015625 0  0.1953125 0.015625 0  0.203125 0.015625 0  0.2109375 0.015625 0  0.21875 0.015625 0  0.2265625 0.015625 0  0.234375 0.015625 0  0.2421875 0.015625 0  0.25 0.015625 0  0.2578125 0.015625 0  0.265625 0.015625 0  0.2734375 0.015625 0  0.28125 0.015625 0  0.2890625 0.015625 0  0.296875 0.015625 0  0.3046875 0.015625 0  0.3125 0.015625 0  0.3203125 0.015625 0  0.328125 0.015625 0  0.3359375 0.015625 0  0.34375 0.015625 0  0.3515625 0.015625 0  0.359375 0.015625 0  0.3671875 0.015625 0  0.375 0.015625 0  0.3828125 0.015625 0  0.390625 0.015625 0  0.3984375 0.015625 0  0.40625 0.015625 0  0.4140625 0.015625 0  0.421875 0.015625 0  0.4296875 0.015625 0  0.4375 0.015625 0  0.4453125 0.015625 0  0.453125 0.015625 0  0.4609375 0.015625 0  0.46875 0.015625 0  0.4765625 0.015625 0  0.484375 0.015625 0  0.4921875 0.015625 0  0.5 0.015625 0  0.5078125 0.015625 0  0.515625 0.015625 0  0.5234375 0.015625 0  0.53125 0.015625 0  0.5390625 0.015625 0  0.546875 0.015625 0  0.5546875 0.015625 0  0.5625 0.015625 0  0.5703125 0.015625 0  0.578125 0.015625 0  0.5859375 0.015625 0  0.59375 0.015625 0  0.6015625 0.015625 0  0.609375 0.015625 0  0.6171875 0.015625 0  0.625 0.015625 0  0.6328125 0.015625 0  0.640625 0.015625 0  0.6484375 0.015625 0  0.65625 0.015625 0  0.6640625 0.015625 0  0.671875 0.015625 0  0.6796875 0.015625 0  0.6875 0.015625 0  0.6953125 0.015625 0  0.703125 0.015625 0  0.7109375 0.015625 0  0.71875 0.015625 0  0.7265625 0.015625 0  0.734375 0.015625 0  0.7421875 0.015625 0  0.75 0.015625 0  0.7578125 0.015625 0  0.765625 0.015625 0  0.7734375 0.015625 0  0.78125 0.015625 0  0.7890625 0.015625 0  0.796875 0.015625 0  0.8046875 0.015625 0  0.8125 0.015625 0  0.8203125 0.015625 0  0.828125 0.015625 0  0.8359375 0.015625 0  0.84375 0.015625 0  0.8515625 0.015625 0  0.859375 0.015625 0  0.8671875 0.015625 0  0.875 0.015625 0  0.8828125 0.015625 0  0.890625 0.015625 0  0.8984375 0.015625 0  0.90625 0.015625 0  0.9140625 0.015625 0  0.921875 0.015625 0  0.9296875 0.015625 0  0.9375 0.015625 0  0.9453125 0.015625 0  0.953125 0.015625 0  0.9609375 0.015625 0  0.96875 0.015625 0  0.9765625 0.015625 0  0.984375 0.015625 0  0.9921875 0.015625 0  1 0.015625 0  0 0.0234375 0  0.0078125 0.0234375 0  0.015625 0.0234375 0  0.0234375 0.0234375 0  0.03125 0.0234375 0  0.0390625 0.0234375 0  0.046875 0.0234375 0  0.0546875 0.0234375 0  0.0625 0.0234375 0  0.0703125 0.0234375 0  0.078125 0.0234375 0  0.0859375 0.0234375 0  0.09375 0.0234375 0  0.1015625 0.0234375 0  0.109375 0.0234375 0  0.1171875 0.0234375 0  0.125 0.0234375 0  0.1328125 0.0234375 0  0.140625 0.0234375 0  0.1484375 0.0234375 0  0.15625 0.0234375 0  0.1640625 0.0234375 0  0.171875 0.0234375 0  0.1796875 0.0234375 0  0.1875 0.0234375 0  0.1953125 0.0234375 0  0.203125 0.0234375 0  0.2109375 0.0234375 0  0.21875 0.0234375 0  0.2265625 0.0234375 0  0.234375 0.0234375 0  0.2421875 0.0234375 0  0.25 0.0234375 0  0.2578125 0.0234375 0  0.265625 0.0234375 0  0.2734375 0.0234375 0  0.28125 0.0234375 0  0.2890625 0.0234375 0  0.296875 0.0234375 0  0.3046875 0.0234375 0  0.3125 0.0234375 0  0.3203125 0.0234375 0  0.328125 0.0234375 0  0.3359375 0.0234375 0  0.34375 0.0234375 0  0.3515625 0.0234375 0  0.359375 0.0234375 0  0.3671875 0.0234375 0  0.375 0.0234375 0  0.3828125 0.0234375 0  0.390625 0.0234375 0  0.3984375 0.0234375 0  0.40625 0.0234375 0  0.4140625 0.0234375 0  0.421875 0.0234375 0  0.4296875 0.0234375 0  0.4375 0.0234375 0  0.4453125 0.0234375 0  0.453125 0.0234375 0  0.4609375 0.0234375 0  0.46875 0.0234375 0  0.4765625 0.0234375 0  0.484375 0.0234375 0  0.4921875 0.0234375 0  0.5 0.0234375 0  0.5078125 0.0234375 0  0.515625 0.0234375 0  0.5234375 0.0234375 0  0.53125 0.0234375 0  0.5390625 0.0234375 0  0.546875 0.0234375 0  0.5546875 0.0234375 0  0.5625 0.0234375 0  0.5703125 0.0234375 0  0.578125 0.0234375 0  0.5859375 0.0234375 0  0.59375 0.0234375 0  0.6015625 0.0234375 0  0.609375 0.0234375 0  0.6171875 0.0234375 0  0.625 0.0234375 0  0.6328125 0.0234375 0  0.640625 0.0234375 0  0.6484375 0.0234375 0  0.65625 0.0234375 0  0.6640625 0.0234375 0  0.671875 0.0234375 0  0.6796875 0.0234375 0  0.6875 0.0234375 0  0.6953125 0.0234375 0  0.703125 0.0234375 0  0.7109375 0.0234375 0  0.71875 0.0234375 0  0.7265625 0.0234375 0  0.734375 0.0234375 0  0.7421875 0.0234375 0  0.75 0.0234375 0  0.7578125 0.0234375 0  0.765625 0.0234375 0  0.7734375 0.0234375 0  0.78125 0.0234375 0  0.7890625 0.0234375 0  0.796875 0.0234375 0  0.8046875 0.0234375 0  0.8125 0.0234375 0  0.8203125 0.0234375 0  0.828125 0.0234375 0  0.8359375 0.0234375 0  0.84375 0.0234375 0  0.8515625 0.0234375 0  0.859375 0.0234375 0  0.8671
[...]
<CellData  Scalars="f_196016"> 
<DataArray  type="Float64"  Name="f_196016"  format="ascii">3.7207957759362636e-08   3.4796392187566111e-08   3.7383851775272767e-08   3.4840294352200939e-08   3.7672909381805107e-08   3.5000316815656376e-08   3.8074342616732759e-08   3.5276183805863791e-08   3.8587123614589686e-08   3.5667248348902887e-08   3.9209973377937855e-08   3.6172558714427683e-08   3.9941358791036739e-08   3.6790881146109537e-08   4.0779493107443296e-08   3.7520709561381706e-08   4.1722338329700570e-08   3.8360271330718619e-08   4.2767608862437873e-08   3.9307532109770434e-08   4.3912776113704206e-08   4.0360200800696238e-08   4.5155073925676829e-08   4.1515734845880440e-08   4.6491504764918448e-08   4.2771346070379111e-08   4.7918846512744265e-08   4.4124007260026321e-08   4.9433659896521653e-08   4.5570459149849367e-08   5.1032296485271977e-08   4.7107218067689278e-08   5.2710907283848246e-08   4.8730584067052109e-08   5.4465451818639701e-08   5.0436649730382271e-08   5.6291707610134172e-08   5.2221309507498822e-08   5.8185280335292948e-08   5.4080269199421779e-08   6.0141614092772024e-08   5.6009056554805284e-08   6.2156002504221017e-08   5.8003031444350400e-08   6.4223599687577256e-08   6.0057397508110730e-08   6.6339431987423428e-08   6.2167213090903743e-08   6.8498409907805348e-08   6.4327403296721700e-08   7.0695340234107242e-08   6.6532772223901669e-08   7.2924938409000208e-08   6.8778015340331443e-08   7.5181841324533802e-08   7.1057732042469061e-08   7.7460620149660457e-08   7.3366438812691079e-08   7.9755793326327430e-08   7.5698582332741436e-08   8.2061839911133789e-08   7.8048552700298613e-08   8.4373212524491482e-08   8.0410697274372954e-08   8.6684350886018628e-08   8.2779333737971096e-08   8.8989695124423261e-08   8.5148764064572506e-08   9.1283699343484862e-08   8.7513288078763486e-08   9.3560844576075607e-08   8.9867217547530713e-08   9.5815652374225030e-08   9.2204889253907965e-08   9.8042697942231734e-08   9.4520679056176750e-08   1.0023662295748384e-07   9.6809015415668057e-08   1.0239214879655587e-07   9.9064392421690455e-08   1.0450408916158862e-07   1.0128138348930962e-07   1.0656736230035334e-07   1.0345465437765917e-07   1.0857700360600155e-07   1.0557897562210578e-07   1.1052817743764761e-07   1.0764923560910518e-07   1.1241618848864235e-07   1.0966045276942990e-07   1.1423649373028239e-07   1.1160778712708284e-07   1.1598471270530692e-07   1.1348655283344249e-07   1.1765663837669520e-07   1.1529222862810776e-07   1.1924824723033301e-07   1.1702046908919190e-07   1.2075570901261579e-07   1.1866711505900535e-07   1.2217539603238546e-07   1.2022820370675413e-07   1.2350389154379239e-07   1.2169997820231484e-07   1.2473799837512046e-07   1.2307889631621305e-07   1.2587474647840229e-07   1.2436163942146104e-07   1.2691140001173872e-07   1.2554512032191563e-07   1.2784546399659260e-07   1.2662649060334720e-07   1.2867469038143346e-07   1.2760314756619630e-07   1.2939708330296131e-07   1.2847274056289582e-07   1.3001090414197136e-07   1.2923317648067665e-07   1.3051467553980027e-07   1.2988262505856782e-07   1.3090718489896944e-07   1.3041952311391314e-07   1.3118748729127556e-07   1.3084257824696988e-07   1.3135490818975479e-07   1.3115077193359169e-07   1.3140904444312421e-07   1.3134336245987822e-07   1.3134976551891781e-07   1.3141988603374667e-07   1.3117721385235352e-07   1.3138015818345431e-07   1.3089180452136329e-07   1.3122427423687724e-07   1.3049422435110365e-07   1.3095260911393753e-07   1.2998542949178643e-07   1.3056581649770415e-07   1.2936664420932903e-07   1.3006482654789466e-07   1.2863935748424849e-07   1.2945084471390092e-07   1.2780531908872799e-07   1.2872534836743117e-07   1.2686653568035169e-07   1.2789008293917906e-07   1.2582526610548714e-07   1.2694705802300719e-07   1.2468401544874740e-07   1.2589854261789345e-07   1.2344552958872992e-07   1.2474705924146548e-07   1.2211278818712631e-07   1.2349537836011100e-07   1.2068899757513134e-07   1.2214651135605436e-07   1.1917758309822221e-07   1.2070370333973028e-07   1.1758218084318752e-07   1.1917042539088192e-07   1.1590662870542010e-07   1.1755036615025085e-07   1.1415495760649321e-07   1.1584742285311932e-07   1.1233138095663478e-07   1.1406569220438487e-07   1.1044028560179918e-07   1.1220945998845969e-07   1.0848622030600440e-07   1.1028319150342139e-07   1.0647388527943503e-07   1.0829152009324072e-07   1.0440812067323918e-07   1.0623923635232314e-07   1.0229389517834049e-07   1.0413127648963008e-07   1.0013629375899493e-07   1.0197271057458938e-07   9.7940505661053226e-08   9.9768730144208602e-08   9.5711811849921839e-08   9.7524635881614914e-08   9.3455572292395452e-08   9.5245824794417406e-08   9.1177213077579537e-08   9.2937777219337719e-08   8.8882213555138293e-08   9.0606043703856210e-08   8.6576092839939427e-08   8.8256231687017449e-08   8.4264396982778580e-08   8.5893991924378883e-08   8.1952685364187945e-08   8.3525005113071295e-08   7.9646517494183129e-08   8.1154968093142023e-08   7.7351439684263569e-08   7.8789580269019839e-08   7.5072971838309011e-08   7.6434529970792396e-08   7.2816594128918685e-08   7.4095480821541064e-08   7.0587733939188260e-08   7.1778058120173469e-08   6.8391753074283226e-08   6.9487835494306528e-08   6.6233934806265948e-08   6.7230321598732598e-08   6.4119471271211355e-08   6.5010946853529361e-08   6.2053451340714505e-08   6.2835050607472961e-08   6.0040848307496789e-08   6.0707868401069704e-08   5.8086508307318699e-08   5.8634519521754174e-08   5.6195138723447180e-08   5.6619994854286744e-08   5.4371297204909945e-08   5.4669145063864135e-08   5.2619380919095776e-08   5.2786669139298140e-08   5.0943616328370864e-08   5.0977103335439139e-08   4.9348049249514676e-08   4.9244810423086261e-08   4.7836535631666013e-08   4.7593969529034520e-08   4.6412732700983914e-08   4.6028566375045353e-08   4.5080090712655557e-08   4.4552384012780977e-08   4.3841845244207457e-08   4.3168994009196765e-08   4.2701010184239185e-08   4.1881748188901678e-08   4.1660371491484872e-08   4.0693770978500044e-08   4.0722481652149132e-08   3.9607952069947231e-08   3.9889655186242681e-08   3.8626939651465503e-08   3.9163965259053511e-08   3.7753133690203871e-08   3.8547241891683417e-08   3.6988678947271645e-08   3.8041072497589968e-08   3.6335456291857709e-08   3.7646806400473800e-08   3.5795068618184490e-08   3.7365567649301374e-08   3.5368811009229866e-08   3.7198288880947934e-08   3.5057591380602073e-08   3.7145811593429221e-08   3.4861687144072404e-08   3.4837391870109902e-08   3.2567560031261170e-08   3.5021160006487622e-08   3.2615771906908292e-08   3.5322984197046108e-08   3.2785351124901369e-08   3.5742326261063880e-08   3.3075963863781405e-08   3.6278225785253234e-08   3.3486935822681283e-08   3.6929398845528445e-08   3.4017280788022878e-08   3.7694270610038648e-08   3.4665715812800256e-08   3.8570989023213475e-08   3.5430670394436432e-08   3.9557432757635198e-08   3.6310293087666179e-08   4.0651217561380474e-08   3.7302457194584050e-08   4.1849702431745331e-08   3.8404766455461081e-08   4.3149995995282885e-08   3.9614560963978915e-08   4.4548963292496857e-08   4.0928923573563444e-08   4.6043233347216542e-08   4.2344686706132165e-08   4.7629207028973323e-08   4.3858440063508852e-08   4.9303065547617917e-08   4.5466538607061880e-08   5.1060779536094804e-08   4.7165111041907330e-08   5.2898118504355379e-08   4.8950069298664754e-08   5.4810661133067058e-08   5.0817117947144749e-08   5.6793805493892239e-08   5.2761764645975235e-08   5.8842780354394405e-08   5.4779330780636823e-08   6.0952656161341935e-08   5.6864962577807291e-08   6.3118357286390423e-08   5.9013642749035126e-08   6.5334673894154661e-08   6.1220202469904809e-08   6.7596274345036747e-08   6.3479333886130002e-08   6.9897718202711148e-08   6.5785602548667858e-08   7.2233469214354991e-08   6.8133460736684889e-08   7.4597908475377205e-08   7.0517260604678476e-08   7.6985348084673135e-08   7.2931267737823106e-08   7.9390044617764328e-08   7.5369675104276696e-08   8.1806212943576492e-08   7.7826616632688186e-08   8.4228040426030644e-08   8.0296181597645697e-08   8.6649700529574788e-08   8.2772428833621093e-08   8.9065367095504042e-08   8.5249400844538468e-08   9.1469228035193931e-08   8.7721138341710435e-08   9.3855499766837442e-08   9.0181694360297807e-08   9.6218440800384080e-08   9.2625148743175754e-08   9.8552365425206022e-08   9.5045622420260686e-08   1.0085165788745931e-07   9.7437291168640644e-08   1.0311078546809396e-07   9.9794400134496770e-08   1.0532431201760262e-07   1.0211127740504998e-07   1.0748691109033286e-07   1.0438234781919565e-07   1.0959337834429703e-07   1.0660214632420234e-07   1.1163864467519049e-07   1.0876533081386837e-07   1.1361778844621295e-07   1.1086669559947326e-07   1.1552604608422115e-07   1.1290118396331942e-07   1.1735882547101563e-07   1.1486389901306697e-07   1.1911171584735628e-07   1.1675011744023445e-07   1.2078049843198056e-07   1.1855529980907146e-07   1.2236115677201672e-07   1.2027510137839347e-07   1.2384988667610919e-07   1.2190538276890092e-07   1.2524310498341707e-07   1.2344222032579116e-07   1.2653745856545978e-07   1.2488191493176403e-07   1.2772983193765141e-07   1.2622100155298586e-07   1.2881735505217125e-07   1.2745625694960462e-07   1.2979741048494861e-07   1.2858470774415950e-07   1.3066763931105477e-07   1.2960363792993996e-07   1.3142594670939207e-07   1.3051059495711341e-07   1.3207050759606773e-07   1.3130339549060791e-07   1.3259977018685808e-07   1.3198013138525718e-07   1.3301246079534623e-07   1.3253917332290131e-07   1.3330758585934062e-07   1.3297917588982216e-07   1.3348443461534852e-07   1.3329907971592133e-07   1.3354258148536881e-07   1.3349811434720938e-07   1.3348188636268234e-07   1.3357580074993869e-07   1.3330249487399192e-07   1.3353195173637679e-07   1.3300483867918962e-07   1.3336667234395791e-07   1.3258963384922588e-07   1.3308036022620410e-07   1.3205787958788747e-07   1.3267370409641427e-07   1.3141085546182747e-07   1.3214768257587384e-07   1.3065011801680127e-07   1.3150356137253497e-07   1.2977749793449766e-07   1.3074289001894526e-07   1.2879509510368010e-07   1.2986749902557152e-07   1.2770527313199275e-07   1.2887949490522265e-07   1.2651065445730446e-07   1.2778125471096438e-07   1.2521411354057535e-07   1.2657542115239978e-07   1.2381876977968640e-07   1.2526489559995571e-07   1.2232798046224728e-07   1.2385283110340720e-07   1.2074533245981962e-07   1.2234262516972035e-07   1.1907463350001257e-07   1.2073791135605790e-07   1.1731990332153357e-07   1.1904255047161562e-07   1.1548536309967923e-07   1.1726062153242284e-07   1.1357542657562625e-07   1.1539641111092004e-07   1.1159468811167701e-07   1.1345440433793147e-07   1.0954791284309731e-07   1.1143927265005936e-07   1.0744002439290642e-07   1.0935586390246694e-07   1.0527609304049355e-07   1.0720918971488054e-07   1.0306132396665951e-07   1.0500441368103820e-07   1.0080104459027737e-07   1.0274683912329932e-07   9.8500691359365752e-08   1.0044189630560280e-07   9.6165797145704259e-08   9.8095129017055945e-08   9.3801977773731356e-08   9.5712181634070691e-08   9.1414918527514420e-08   9.3298785409283694e-08   8.9010360310015855e-08   9.0860744674415037e-08   8.6594086335299615e-08   8.8403922758702297e-08   8.4171907804509750e-08   8.5934228386084579e-08   8.1749650010519092e-08   8.3457600866688900e-08   7.9333138705782141e-08   8.0979996237358233e-08   7.6928185741249539e-08   7.8507372947325674e-08   7.4540575369520465e-08   7.6045677423597085e-08   7.2176050451710223e-08   7.3600829934326416e-08   6.9840298573214636e-08   7.1178710462936816e-08   6.7538938524680855e-08   6.8785144562027639e-08   6.5277506862251236e-08   6.6425889341447567e-08   6.3061444980029436e-08   6.4106619953014663e-08   6.0896085663482677e-08   6.1832915970904598e-08   5.8786640831966898e-08   5.9610247867514282e-08   5.6738188959765557e-08   5.7443964317651897e-08   5.4755663226974382e-08   5.5339279288061912e-08   5.2843839684879155e-08   5.3301259775826304e-08   5.1007326121557148e-08   5.1334813696785501e-08   4.9250551191459894e-08   4.9444678348503375e-08   4.7577753998451927e-08   4.7635409107190779e-08   4.5992974370220828e-08   4.5911368859042926e-08   4.4500043332142694e-08   4.4276717556703821e-08   4.3102574421108447e-08   4.2735402541225156e-08   4.1803955286494512e-08   4.1291149116609914e-08   4.0607340140684295e-08   3.9947451848701200e-08   3.9515642679442813e-08   3.8707566175055643e-08   3.8531529524411534e-08   3.7574500368755579e-08   3.7657414421384171e-08   3.6551007888110253e-08   3.6895452652447588e-08   3.5639579472221558e-08   3.6247535628309243e-08   3.4842434654605354e-08   3.5715284379592618e-08   3.4161511187164845e-08   3.5300038716306604e-08   3.3598449732236989e-08   3.5002831850188431e-08   3.3154568791263560e-08   3.4824312997300220e-08   3.2830821583160430e-08   3.4764472838701661e-08   3.2627734139710416e-08   3.2587441753262182e-08   3.0463638170219216e-08   3.2777887402559559e-08   3.0515689802252860e-08   3.3091532516856698e-08   3.0694140559559747e-08   3.3527737495019190e-08   3.0998594583497791e-08   3.4085505626847973e-08   3.1428331843089464e-08   3.4763514436849305e-08   3.1982318985697174e-08   3.5560136335412116e-08   3.2659217666468751e-08   3.6473451393085088e-08   3.3457391174606269e-08   3.7501256208807573e-08   3.4374910349626368e-08   3.8641071205773990e-08   3.5409559152751049e-08   3.9890147607590503e-08   3.6558840511667952e-08   4.1245474447858144e-08   3.7819982569758609e-08   4.2703785994071737e-08   3.9189945395370668e-08   4.4261569518329478e-08   4.0665428247027171e-08   4.5915073850798199e-08   4.2242877459442913e-08   4.7660318361078591e-08   4.3918494858361088e-08   4.9493102185823363e-08   4.5688246900173152e-08   5.1409014509720226e-08   4.7547874177028823e-08   5.3403444951050043e-08   4.9492901503966270e-08   5.5471594584718462e-08   5.1518648723607667e-08   5.7608487536666419e-08   5.3620241826474168e-08   5.9808982589059631e-08   5.5792624650391259e-08   6.2067785857509512e-08   5.8030570774770847e-08   6.4379463119676076e-08   6.0328696319875858e-08   6.6738453137577911e-08   6.2681472601550685e-08   6.9139080708927607e-08   6.5083239574071850e-08   7.1575570555036094e-08   6.7528219208874958e-08   7.4042061046111526e-08   7.0010529508300107e-08   7.6532618098967745e-08   7.2524198674966368e-08   7.9041249941142294e-08   7.5063179112790473e-08   8.1561920822014612e-08   7.7621362514860977e-08   8.4088566216784246e-08   8.0192593876698782e-08   8.6615106985298594e-08   8.2770686989107378e-08   8.9135463962408333e-08   8.5349438867329689e-08   9.1643572794838227e-08   8.7922644651919085e-08   9.4133398502744707e-08   9.0484112781448285e-08   9.6598949660726413e-08   9.3027679800930206e-08   9.9034293579112101e-08   9.5547224863913672e-08   1.0143356984192807e-07   9.8036685257583581e-08   1.0379100468336971e-07   1.0049007023995807e-07   1.0610092473617278e-07   1.0290147577030817e-07   1.0835777123485345e-07   1.0526509848948355e-07   1.1055611278767558e-07   1.0757525030990460e-07   1.1269065859378449e-07   1.0982637139700498e-07   1.1475627135771403e-07   1.1201304387956754e-07   1.1674797995537162e-07   1.1413000492779214e-07   1.1866099033313443e-07   1.1617215965362705e-07   1.2049069828136042e-07   1.1813459254880999e-07   1.2223270005198911e-07   1.2001258036060672e-07   1.2388280256475601e-07   1.2180160304601129e-07   1.2543703400912689e-07   1.2349735420319097e-07   1.2689165364190659e-07   1.2509575212526466e-07   1.2824315969396757e-07   1.2659294964364094e-07   1.2948829939083853e-07   1.2798534242331998e-07   1.3062407560012642e-07   1.2926957919927189e-07   1.3164775412301552e-07   1.3044256864762503e-07   1.3255687083017452e-07   1.3150148693688077e-07   1.3334923744150600e-07   1.3244378504826458e-07   1.3402294635725017e-07   1.3326719473347729e-07   1.3457637607372423e-07   1.3396973364199024e-07   1.3500819390928947e-07   1.3454971079500723e-07   1.3531736069666827e-07   1.3500572956813198e-07   1.3550313177097724e-07   1.3533669247978134e-07   1.3556505995902181e-07   1.3554180235098116e-07   1.3550299588771591e-07   1.3562056542181789e-07   1.3531708877955549e-07   1.3557279174751354e-07   1.3500778584408260e-07   1.3539859611922843e-07   1.3457583122764693e-07   1.3509839751900728e-07   1.3402226449493960e-07   1.3467291814079381e-07   1.3334841764504509e-07   1.3412318194453429e-07   1.3255591241142371e-07   1.3345051166848406e-07   1.3164665569745112e-07   1.3265652619291839e-07   1.3062283545524702e-07   1.3174313595290079e-07   1.2948691558151486e-07   1.3071253882414064e-07   1.2824162936290528e-07   1.2956721498848816e-07   1.2688997359922782e-07   1.2830992037607441e-07   1.2543520067140421e-07   1.2694368060147458e-07   1.2388081099793504e-07   1.2547178315479411e-07   1.2223054476190944e-07   1.2389776964274464e-07   1.2048837257314480e-07   1.2222542741620672e-07   1.1865848637595369e-07   1.2045878023303330e-07   1.1674528891194642e-07   1.1860207882720523e-07   1.1475338308547566e-07   1.1665979048055499e-07   1.1268756120338809e-07   1.1463658801331681e-07   1.1055279329966328e-07   1.1253733907133231e-07   1.0835421497529899e-07   1.1036709395951563e-07   1.0609711516685365e-07   1.0813107355386147e-07   1.0378692378506328e-07   1.0583465695340023e-07   1.0142919781199650e-07   1.0348336843165262e-07   9.9029608805682547e-08   1.0108286377064368e-07   9.6593928670971870e-08   9.8638917361173940e-08   9.4128016047950720e-08   9.6157407662677695e-08   9.1637802090336725e-08   9.3644303390870793e-08   8.9129276524471405e-08   9.1105649093187116e-08   8.6608472699239100e-08   8.8547550790966303e-08   8.4081453671238604e-08   8.5976160862294032e-08   8.1554297298032562e-08   8.3397663744099199e-08   7.9033081873565705e-08   8.0818260920706357e-08   7.6523871467884641e-08   7.8244155947790470e-08   7.4032701315121243e-08   7.5681539764803900e-08   7.1565563440884246e-08   7.3136575632274780e-08   6.9128392494997162e-08   7.0615384504004658e-08   6.6727051277707983e-08   6.8124030493349984e-08   6.4367316993998264e-08   6.5668506153887237e-08   6.2054867256026087e-08   6.3254718335125200e-08   5.9795266651302254e-08   6.0888473785861436e-08   5.7593953630618062e-08   5.8575465775983466e-08   5.5456227361682771e-08   5.6321260119713981e-08   5.3387235334625745e-08   5.4131282181014045e-08   5.1391961009837102e-08   5.2010803748951821e-08   4.9475212218685100e-08   4.9964930750285177e-08   4.7641609664062576e-08   4.7998590966324072e-08   4.5895576163485657e-08   4.6116522430172699e-08   4.4241326225959337e-08   4.4323262229284702e-08   4.2682856163604963e-08   4.2623135670830530e-08   4.1223934868550030e-08   4.1020246164618456e-08   3.9868094888923313e-08   3.9518465318889273e-08   3.8618624329977430e-08   3.8121423802025521e-08   3.7478559125391564e-08   3.6832502515878200e-08   3.6450675779654870e-08   3.5654824140677827e-08   3.5537484559922439e-08   3.4591245063645206e-08   3.4741222627130573e-08   3.3644347240784403e-08   3.4063846694641573e-08   3.2816429804773536e-08   3.3507023634152439e-08   3.2109499662001429e-08   3.3072115834005475e-08   3.1525260319048171e-08   3.2760154027863215e-08   3.1065098425265238e-08   3.2571782048999425e-08   3.0730069893874859e-08   3.2507153188978120e-08   3.0520897539468226e-08   3.0462462996211179e-08   2.8489031754724261e-08   3.0658965562884008e-08   2.8544609450410444e-08   3.0983585069295466e-08   2.8731319974290208e-08   3.1435591271006011e-08   2.9048725886366900e-08   3.2013928098826499e-08   2.9496065416437716e-08   3.2717219254079915e-08   3.0072258071228221e-08   3.3543777507556063e-08   3.0775910214886596e-08   3.4491613353719822e-08   3.1605320292511678e-08   3.5558442776946750e-08   3.2558484028463227e-08   3.6741694330544087e-08   3.3633099909544689e-08   3.8038516288718094e-08   3.4826574966967560e-08   3.9445783978986309e-08   3.6136031255935167e-08   4.0960107526164421e-08   3.7558312742331951e-08   4.2577840060200115e-08   3.9089992852221433e-08   4.429508