<?xml version="1.0"?>
<VTKFile type="UnstructuredGrid"  version="0.1"  >
<UnstructuredGrid>
<Piece  NumberOfPoints="16641" NumberOfCells="32768">
<Points>
<DataArray  type="Float64"  NumberOfComponents="3"  format="ascii">0 0 0  0.0078125 0 0  0.015625 0 0  0.0234375 0 0  0.03125 0 0  0.0390625 0 0  0.046875 0 0  0.0546875 0 0  0.0625 0 0  0.0703125 0 0  0.078125 0 0  0.0859375 0 0  0.09375 0 0  0.1015625 0 0  0.109375 0 0  0.1171875 0 0  0.125 0 0  0.1328125 0 0  0.140625 0 0  0.1484375 0 0  0.15625 0 0  0.1640625 0 0  0.171875 0 0  0.1796875 0 0  0.1875 0 0  0.1953125 0 0  0.203125 0 0  0.2109375 0 0  0.21875 0 0  0.2265625 0 0  0.234375 0 0  0.2421875 0 0  0.25 0 0  0.2578125 0 0  0.265625 0 0  0.2734375 0 0  0.28125 0 0  0.2890625 0 0  0.296875 0 0  0.3046875 0 0  0.3125 0 0  0.3203125 0 0  0.328125 0 0  0.3359375 0 0  0.34375 0 0  0.3515625 0 0  0.359375 0 0  0.3671875 0 0  0.375 0 0  0.3828125 0 0  0.390625 0 0  0.3984375 0 0  0.40625 0 0  0.4140625 0 0  0.421875 0 0  0.4296875 0 0  0.4375 0 0  0.4453125 0 0  0.453125 0 0  0.4609375 0 0  0.46875 0 0  0.4765625 0 0  0.484375 0 0  0.4921875 0 0  0.5 0 0  0.5078125 0 0  0.515625 0 0  0.5234375 0 0  0.53125 0 0  0.5390625 0 0  0.546875 0 0  0.5546875 0 0  0.5625 0 0  0.5703125 0 0  0.578125 0 0  0.5859375 0 0  0.59375 0 0  0.6015625 0 0  0.609375 0 0  0.6171875 0 0  0.625 0 0  0.6328125 0 0  0.640625 0 0  0.6484375 0 0  0.65625 0 0  0.6640625 0 0  0.671875 0 0  0.6796875 0 0  0.6875 0 0  0.6953125 0 0  0.703125 0 0  0.7109375 0 0  0.71875 0 0  0.7265625 0 0  0.734375 0 0  0.7421875 0 0  0.75 0 0  0.7578125 0 0  0.765625 0 0  0.7734375 0 0  0.78125 0 0  0.7890625 0 0  0.796875 0 0  0.8046875 0 0  0.8125 0 0  0.8203125 0 0  0.828125 0 0  0.8359375 0 0  0.84375 0 0  0.8515625 0 0  0.859375 0 0  0.8671875 0 0  0.875 0 0  0.8828125 0 0  0.890625 0 0  0.8984375 0 0  0.90625 0 0  0.9140625 0 0  0.921875 0 0  0.9296875 0 0  0.9375 0 0  0.9453125 0 0  0.953125 0 0  0.9609375 0 0  0.96875 0 0  0.9765625 0 0  0.984375 0 0  0.9921875 0 0  1 0 0  0 0.0078125 0  0.0078125 0.0078125 0  0.015625 0.0078125 0  0.0234375 0.0078125 0  0.03125 0.0078125 0  0.0390625 0.0078125 0  0.046875 0.0078125 0  0.0546875 0.0078125 0  0.0625 0.0078125 0  0.0703125 0.0078125 0  0.078125 0.0078125 0  0.0859375 0.0078125 0  0.09375 0.0078125 0  0.1015625 0.0078125 0  0.109375 0.0078125 0  0.1171875 0.0078125 0  0.125 0.0078125 0  0.1328125 0.0078125 0  0.140625 0.0078125 0  0.1484375 0.0078125 0  0.15625 0.0078125 0  0.1640625 0.0078125 0  0.171875 0.0078125 0  0.1796875 0.0078125 0  0.1875 0.0078125 0  0.1953125 0.0078125 0  0.203125 0.0078125 0  0.2109375 0.0078125 0  0.21875 0.0078125 0  0.2265625 0.0078125 0  0.234375 0.0078125 0  0.2421875 0.0078125 0  0.25 0.0078125 0  0.2578125 0.0078125 0  0.265625 0.0078125 0  0.2734375 0.0078125 0  0.28125 0.0078125 0  0.2890625 0.0078125 0  0.296875 0.0078125 0  0.3046875 0.0078125 0  0.3125 0.0078125 0  0.3203125 0.0078125 0  0.328125 0.0078125 0  0.3359375 0.0078125 0  0.34375 0.0078125 0  0.3515625 0.0078125 0  0.359375 0.0078125 0  0.3671875 0.0078125 0  0.375 0.0078125 0  0.3828125 0.0078125 0  0.390625 0.0078125 0  0.3984375 0.0078125 0  0.40625 0.0078125 0  0.4140625 0.0078125 0  0.421875 0.0078125 0  0.4296875 0.0078125 0  0.4375 0.0078125 0  0.4453125 0.0078125 0  0.453125 0.0078125 0  0.4609375 0.0078125 0  0.46875 0.0078125 0  0.4765625 0.0078125 0  0.484375 0.0078125 0  0.4921875 0.0078125 0  0.5 0.0078125 0  0.5078125 0.0078125 0  0.515625 0.0078125 0  0.5234375 0.0078125 0  0.53125 0.0078125 0  0.5390625 0.0078125 0  0.546875 0.0078125 0  0.5546875 0.0078125 0  0.5625 0.0078125 0  0.5703125 0.0078125 0  0.578125 0.0078125 0  0.5859375 0.0078125 0  0.59375 0.0078125 0  0.6015625 0.0078125 0  0.609375 0.0078125 0  0.6171875 0.0078125 0  0.625 0.0078125 0  0.6328125 0.0078125 0  0.640625 0.0078125 0  0.6484375 0.0078125 0  0.65625 0.0078125 0  0.6640625 0.0078125 0  0.671875 0.0078125 0  0.6796875 0.0078125 0  0.6875 0.0078125 0  0.6953125 0.0078125 0  0.703125 0.0078125 0  0.7109375 0.0078125 0  0.71875 0.0078125 0  0.7265625 0.0078125 0  0.734375 0.0078125 0  0.7421875 0.0078125 0  0.75 0.0078125 0  0.7578125 0.0078125 0  0.765625 0.0078125 0  0.7734375 0.0078125 0  0.78125 0.0078125 0  0.7890625 0.0078125 0  0.796875 0.0078125 0  0.8046875 0.0078125 0  0.8125 0.0078125 0  0.8203125 0.0078125 0  0.828125 0.0078125 0  0.8359375 0.0078125 0  0.84375 0.0078125 0  0.8515625 0.0078125 0  0.859375 0.0078125 0  0.8671875 0.0078125 0  0.875 0.0078125 0  0.8828125 0.0078125 0  0.890625 0.0078125 0  0.8984375 0.0078125 0  0.90625 0.0078125 0  0.9140625 0.0078125 0  0.921875 0.0078125 0  0.9296875 0.0078125 0  0.9375 0.0078125 0  0.9453125 0.0078125 0  0.953125 0.0078125 0  0.9609375 0.0078125 0  0.96875 0.0078125 0  0.9765625 0.0078125 0  0.984375 0.0078125 0  0.9921875 0.0078125 0  1 0.0078125 0  0 0.015625 0  0.0078125 0.015625 0  0.015625 0.015625 0  0.0234375 0.015625 0  0.03125 0.015625 0  0.0390625 0.015625 0  0.046875 0.015625 0  0.0546875 0.015625 0  0.0625 0.015625 0  0.0703125 0.015625 0  0.078125 0.015625 0  0.0859375 0.015625 0  0.09375 0.015625 0  0.1015625 0.015625 0  0.109375 0.015625 0  0.1171875 0.015625 0  0.125 0.015625 0  0.1328125 0.015625 0  0.140625 0.015625 0  0.1484375 0.015625 0  0.15625 0.015625 0  0.1640625 0.015625 0  0.171875 0.015625 0  0.1796875 0.015625 0  0.1875 0.015625 0  0.1953125 0.015625 0  0.203125 0.015625 0  0.2109375 0.015625 0  0.21875 0.015625 0  0.2265625 0.015625 0  0.234375 0.015625 0  0.2421875 0.015625 0  0.25 0.015625 0  0.2578125 0.015625 0  0.265625 0.015625 0  0.2734375 0.015625 0  0.28125 0.015625 0  0.2890625 0.015625 0  0.296875 0.015625 0  0.3046875 0.015625 0  0.3125 0.015625 0  0.3203125 0.015625 0  0.328125 0.015625 0  0.3359375 0.015625 0  0.34375 0.015625 0  0.3515625 0.015625 0  0.359375 0.015625 0  0.3671875 0.015625 0  0.375 0.015625 0  0.3828125 0.015625 0  0.390625 0.015625 0  0.3984375 0.015625 0  0.40625 0.015625 0  0.4140625 0.015625 0  0.421875 0.015625 0  0.4296875 0.015625 0  0.4375 0.015625 0  0.4453125 0.015625 0  0.453125 0.015625 0  0.4609375 0.015625 0  0.46875 0.015625 0  0.4765625 0.015625 0  0.484375 0.015625 0  0.4921875 0.015625 0  0.5 0.015625 0  0.5078125 0.015625 0  0.515625 0.015625 0  0.5234375 0.015625 0  0.53125 0.015625 0  0.5390625 0.015625 0  0.546875 0.015625 0  0.5546875 0.015625 0  0.5625 0.015625 0  0.5703125 0.015625 0  0.578125 0.015625 0  0.5859375 0.015625 0  0.59375 0.015625 0  0.6015625 0.015625 0  0.609375 0.015625 0  0.6171875 0.015625 0  0.625 0.015625 0  0.6328125 0.015625 0  0.640625 0.015625 0  0.6484375 0.015625 0  0.65625 0.015625 0  0.6640625 0.015625 0  0.671875 0.015625 0  0.6796875 0.015625 0  0.6875 0.015625 0  0.6953125 0.015625 0  0.703125 0.015625 0  0.7109375 0.015625 0  0.71875 0.015625 0  0.7265625 0.015625 0  0.734375 0.015625 0  0.7421875 0.015625 0  0.75 0.015625 0  0.7578125 0.015625 0  0.765625 0.015625 0  0.7734375 0.015625 0  0.78125 0.015625 0  0.7890625 0.015625 0  0.796875 0.015625 0  0.8046875 0.015625 0  0.8125 0.015625 0  0.8203125 0.015625 0  0.828125 0.015625 0  0.8359375 0.015625 0  0.84375 0.015625 0  0.8515625 0.015625 0  0.859375 0.015625 0  0.8671875 0.015625 0  0.875 0.015625 0  0.8828125 0.015625 0  0.890625 0.015625 0  0.8984375 0.015625 0  0.90625 0.015625 0  0.9140625 0.015625 0  0.921875 0.015625 0  0.9296875 0.015625 0  0.9375 0.015625 0  0.9453125 0.015625 0  0.953125 0.015625 0  0.9609375 0.015625 0  0.96875 0.015625 0  0.9765625 0.015625 0  0.984375 0.015625 0  0.9921875 0.015625 0  1 0.015625 0  0 0.0234375 0  0.0078125 0.0234375 0  0.015625 0.0234375 0  0.0234375 0.0234375 0  0.03125 0.0234375 0  0.0390625 0.0234375 0  0.046875 0.0234375 0  0.0546875 0.0234375 0  0.0625 0.0234375 0  0.0703125 0.0234375 0  0.078125 0.0234375 0  0.0859375 0.0234375 0  0.09375 0.0234375 0  0.1015625 0.0234375 0  0.109375 0.0234375 0  0.1171875 0.0234375 0  0.125 0.0234375 0  0.1328125 0.0234375 0  0.140625 0.0234375 0  0.1484375 0.0234375 0  0.15625 0.0234375 0  0.1640625 0.0234375 0  0.171875 0.0234375 0  0.1796875 0.0234375 0  0.1875 0.0234375 0  0.1953125 0.0234375 0  0.203125 0.0234375 0  0.2109375 0.0234375 0  0.21875 0.0234375 0  0.2265625 0.0234375 0  0.234375 0.0234375 0  0.2421875 0.0234375 0  0.25 0.0234375 0  0.2578125 0.0234375 0  0.265625 0.0234375 0  0.2734375 0.0234375 0  0.28125 0.0234375 0  0.2890625 0.0234375 0  0.296875 0.0234375 0  0.3046875 0.0234375 0  0.3125 0.0234375 0  0.3203125 0.0234375 0  0.328125 0.0234375 0  0.3359375 0.0234375 0  0.34375 0.0234375 0  0.3515625 0.0234375 0  0.359375 0.0234375 0  0.3671875 0.0234375 0  0.375 0.0234375 0  0.3828125 0.0234375 0  0.390625 0.0234375 0  0.3984375 0.0234375 0  0.40625 0.0234375 0  0.4140625 0.0234375 0  0.421875 0.0234375 0  0.4296875 0.0234375 0  0.4375 0.0234375 0  0.4453125 0.0234375 0  0.453125 0.0234375 0  0.4609375 0.0234375 0  0.46875 0.0234375 0  0.4765625 0.0234375 0  0.484375 0.0234375 0  0.4921875 0.0234375 0  0.5 0.0234375 0  0.5078125 0.0234375 0  0.515625 0.0234375 0  0.5234375 0.0234375 0  0.53125 0.0234375 0  0.5390625 0.0234375 0  0.546875 0.0234375 0  0.5546875 0.0234375 0  0.5625 0.0234375 0  0.5703125 0.0234375 0  0.578125 0.0234375 0  0.5859375 0.0234375 0  0.59375 0.0234375 0  0.6015625 0.0234375 0  0.609375 0.0234375 0  0.6171875 0.0234375 0  0.625 0.0234375 0  0.6328125 0.0234375 0  0.640625 0.0234375 0  0.6484375 0.0234375 0  0.65625 0.0234375 0  0.6640625 0.0234375 0  0.671875 0.0234375 0  0.6796875 0.0234375 0  0.6875 0.0234375 0  0.6953125 0.0234375 0  0.703125 0.0234375 0  0.7109375 0.0234375 0  0.71875 0.0234375 0  0.7265625 0.0234375 0  0.734375 0.0234375 0  0.7421875 0.0234375 0  0.75 0.0234375 0  0.7578125 0.0234375 0  0.765625 0.0234375 0  0.7734375 0.0234375 0  0.78125 0.0234375 0  0.7890625 0.0234375 0  0.796875 0.0234375 0  0.8046875 0.0234375 0  0.8125 0.0234375 0  0.8203125 0.0234375 0  0.828125 0.0234375 0  0.8359375 0.0234375 0  0.84375 0.0234375 0  0.8515625 0.0234375 0  0.859375 0.0234375 0  0.8671
[...]
<CellData  Scalars="f_162364"> 
<DataArray  type="Float64"  Name="f_162364"  format="ascii">1.4965381892011736e-07   1.3065085514561039e-07   1.5305941037038718e-07   1.3172727192286810e-07   1.5872514415464249e-07   1.3509243815266660e-07   1.6663593025876779e-07   1.4073773994514438e-07   1.7677175273751227e-07   1.4864895038246624e-07   1.8910750310544578e-07   1.5880643341349791e-07   2.0361294568987321e-07   1.7118523120407041e-07   2.2025274039038130e-07   1.8575512427059572e-07   2.3898649788862877e-07   2.0248069414757469e-07   2.5976885718057820e-07   2.2132139757635633e-07   2.8254958108984956e-07   2.4223165382412111e-07   3.0727366700515582e-07   2.6516094608839537e-07   3.3388147158872073e-07   2.9005393590850399e-07   3.6230884823409838e-07   3.1685059063460445e-07   3.9248729641095236e-07   3.4548632310604943e-07   4.2434412251053489e-07   3.7589214279805269e-07   4.5780261136700141e-07   4.0799481845618298e-07   4.9278220786481535e-07   4.4171705135275805e-07   5.2919870864103520e-07   4.7697765843005186e-07   5.6696446205249505e-07   5.1369176604030843e-07   6.0598857751722327e-07   5.5177101139369640e-07   6.4617714284258840e-07   5.9112375378706325e-07   6.8743344841435557e-07   6.3165529401490890e-07   7.2965821870502335e-07   6.7326810039851787e-07   7.7274985063959936e-07   7.1586204221080919e-07   8.1660465672705454e-07   7.5933463041707936e-07   8.6111711371070737e-07   8.0358126286366542e-07   9.0618011587776190e-07   8.4849547514186193e-07   9.5168523258720827e-07   8.9396919613486924e-07   9.9752296835023401e-07   9.3989300805535957e-07   1.0435830261144696e-06   9.8615640880256629e-07   1.0897545723220086e-06   1.0326480777432243e-06   1.1359265034770137e-06   1.0792561432234069e-06   1.1819877126160534e-06   1.1258684517799608e-06   1.2278273578311625e-06   1.1723728368369265e-06   1.2733351275773817e-06   1.2186573902075945e-06   1.3184015078582538e-06   1.2646107295200388e-06   1.3629180436985259e-06   1.3101222685373004e-06   1.4067776020387019e-06   1.3550824806807523e-06   1.4498746279348129e-06   1.3993831649761998e-06   1.4921054003337924e-06   1.4429177044251716e-06   1.5333682802989274e-06   1.4855813247123861e-06   1.5735639574856788e-06   1.5272713446258716e-06   1.6125956877667441e-06   1.5678874253897248e-06   1.6503695263269167e-06   1.6073318105943620e-06   1.6867945554108736e-06   1.6455095616230025e-06   1.7217831012385196e-06   1.6823287881118609e-06   1.7552509468217932e-06   1.7177008668931008e-06   1.7871175346238005e-06   1.7515406572679518e-06   1.8173061608046466e-06   1.7837667058649740e-06   1.8457441577731123e-06   1.8143014431883655e-06   1.8723630723581693e-06   1.8430713679282490e-06   1.8970988284993238e-06   1.8700072274699696e-06   1.9198918824596192e-06   1.8950441823293684e-06   1.9406873674761896e-06   1.9181219632122157e-06   1.9594352237341584e-06   1.9391850175609850e-06   1.9760903202611204e-06   1.9581826410241440e-06   1.9906125637540304e-06   1.9750691009697003e-06   2.0029669947105878e-06   1.9898037467700735e-06   2.0131238715474841e-06   2.0023511072694698e-06   2.0210587416433755e-06   2.0126809761335341e-06   2.0267525015332540e-06   2.0207684839829850e-06   2.0301914422202169e-06   2.0265941596333866e-06   2.0313672838597992e-06   2.0301439762690932e-06   2.0302771919258030e-06   2.0314093869232296e-06   2.0269237868604217e-06   2.0303873412412305e-06   2.0213151372036866e-06   2.0270802956805129e-06   2.0134647398195793e-06   2.0214962070231409e-06   2.0033914866510350e-06   2.0136485128589434e-06   1.9911196207028988e-06   2.0035560985132020e-06   1.9766786758037084e-06   1.9912432529908857e-06   1.9601034069483986e-06   1.9767396086866508e-06   1.9414337051053132e-06   1.9600800714194502e-06   1.9207145004507695e-06   1.9413047348719971e-06   1.8979956581724538e-06   1.9204587835248214e-06   1.8733318533025821e-06   1.8975923874948354e-06   1.8467824410895479e-06   1.8727605768967366e-06   1.8184113127619912e-06   1.8460231112057378e-06   1.7882867441763451e-06   1.8174443342518045e-06   1.7564812278720812e-06   1.7870930214269620e-06   1.7230713015414582e-06   1.7550422109170772e-06   1.6881373622105868e-06   1.7213690305767014e-06   1.6517634717571672e-06   1.6861545106921494e-06   1.6140371547154210e-06   1.6494833880384302e-06   1.5750491891200684e-06   1.6114439021772295e-06   1.5348933865227424e-06   1.5721275843171923e-06   1.4936663654646184e-06   1.5316290355384553e-06   1.4514673209062431e-06   1.4900456986196782e-06   1.4083977840761044e-06   1.4474776251364110e-06   1.3645613786342751e-06   1.4040272334126080e-06   1.3200635712070294e-06   1.3597990624631566e-06   1.2750114174206328e-06   1.3148995202779624e-06   1.2295133061217322e-06   1.2694366278331783e-06   1.1836786976769126e-06   1.2235197606050673e-06   1.1376178608254769e-06   1.1772593845914242e-06   1.0914416081703449e-06   1.1307667907859410e-06   1.0452610301436640e-06   1.0841538281359208e-06   9.9918722893991958e-07   1.0375326350730188e-06   9.5333105167984752e-07   9.9101537074640287e-07   9.0780282404668855e-07   9.4471394552531407e-07   8.6271208801800054e-07   8.9873975255935341e-07   8.1816733778342665e-07   8.5320340214637947e-07   7.7427576102289265e-07   8.0821445552627700e-07   7.3114298323322527e-07   7.6388116349835328e-07   6.8887281455403402e-07   7.2031020775510243e-07   6.4756700344447324e-07   6.7760644560781863e-07   6.0732499401338632e-07   6.3587266066386700e-07   5.6824368918407868e-07   5.9520931749205537e-07   5.3041722180233357e-07   5.5571432259814491e-07   4.9393673111069862e-07   5.1748279242849826e-07   4.5889014777858623e-07   4.8060682746495088e-07   4.2536198745354490e-07   4.4517529472595842e-07   3.9343315232827677e-07   4.1127361832777962e-07   3.6318074287578526e-07   3.7898357852793470e-07   3.3467787969519256e-07   3.4838312059213187e-07   3.0799353578044674e-07   3.1954617335993465e-07   2.8319238065042182e-07   2.9254247815302904e-07   2.6033463726256797e-07   2.6743742903753357e-07   2.3947595189628315e-07   2.4429192431871909e-07   2.2066727980164072e-07   2.2316223000223247e-07   2.0395478801877520e-07   2.0409985550434288e-07   1.8937977926381388e-07   1.8715144100905941e-07   1.7697864304566830e-07   1.7235865448778439e-07   1.6678284619620360e-07   1.5975809173658597e-07   1.5881898905030399e-07   1.4938115844253067e-07   1.5310899470065420e-07   1.4125386949251676e-07   1.4967063329726072e-07   1.3539635116269217e-07   1.4851909553238518e-07   1.3182129538321688e-07   1.3170357577821151e-07   1.1510636711841073e-07   1.3516412343155633e-07   1.1621087230544494e-07   1.4091969206948583e-07   1.1963976901805426e-07   1.4895715642717321e-07   1.2538437871564715e-07   1.5925703495572363e-07   1.3343031931475685e-07   1.7179420168478370e-07   1.4375770636403655e-07   1.8653812938984653e-07   1.5634123094749518e-07   2.0345301308496308e-07   1.7115022141351212e-07   2.2249786725937965e-07   1.8814871126404382e-07   2.4362662399534735e-07   2.0729551825144113e-07   2.6678823958269952e-07   2.2854433623952060e-07   2.9192681257689182e-07   2.5184384025121771e-07   3.1898171374303359e-07   2.7713780408489746e-07   3.4788772757870746e-07   3.0436523108106272e-07   3.7857520588296654e-07   3.3346049625647805e-07   4.1097023170772512e-07   3.6435350103616698e-07   4.4499479453862607e-07   3.9696983828771119e-07   4.8056697606336840e-07   4.3123096864628682e-07   5.1760114382721030e-07   4.6705440795957942e-07   5.5600815686594158e-07   5.0435392205375221e-07   5.9569557760347224e-07   5.4303973387712999e-07   6.3656789281911566e-07   5.8301873710574281e-07   6.7852674266645046e-07   6.2419471878809882e-07   7.2147115573533225e-07   6.6646858994413074e-07   7.6529779148579355e-07   7.0973862222800770e-07   8.0990118747945287e-07   7.5390069286023254e-07   8.5517401333269564e-07   7.9884853301176249e-07   9.0100732720415764e-07   8.4447398423844855e-07   9.4729083809711363e-07   8.9066725659054207e-07   9.9391317141387528e-07   9.3731719324374994e-07   1.0407621347311672e-06   9.8431153823998643e-07   1.0877249900497035e-06   1.0315372038742758e-06   1.1346887225159425e-06   1.0788805457978748e-06   1.1815403135204101e-06   1.1262276335242074e-06   1.2281670121121841e-06   1.1734645255467238e-06   1.2744566074237825e-06   1.2204775435484390e-06   1.3202976966599816e-06   1.2671535465381681e-06   1.3655799536014594e-06   1.3133802018139884e-06   1.4101943966307124e-06   1.3590462543818858e-06   1.4540336482209454e-06   1.4040417988577505e-06   1.4969921949947088e-06   1.4482585397941724e-06   1.5389666409819250e-06   1.4915900550095303e-06   1.5798559567884801e-06   1.5339320501916427e-06   1.6195617237583838e-06   1.5751826109031910e-06   1.6579883702268505e-06   1.6152424484693857e-06   1.6950434017208554e-06   1.6540151383581311e-06   1.7306376232080351e-06   1.6914073528752499e-06   1.7646853564951666e-06   1.7273290846019200e-06   1.7971046435325477e-06   1.7616938666141976e-06   1.8278174435162384e-06   1.7944189772780162e-06   1.8567498256602098e-06   1.8254256391004527e-06   1.8838321420785365e-06   1.8546392133704400e-06   1.9089991987438971e-06   1.8819893749478237e-06   1.9321904114576688e-06   1.9074102845622590e-06   1.9533499507460049e-06   1.9308407465183939e-06   1.9724268779973440e-06   1.9522243550872563e-06   1.9893752676478808e-06   1.9715096318295925e-06   2.0041543189099115e-06   1.9886501492554054e-06   2.0167284516039926e-06   2.0036046437949893e-06   2.0270673932991761e-06   2.0163371126153999e-06   2.0351462526525307e-06   2.0268169018373052e-06   2.0409455795515240e-06   2.0350187807703061e-06   2.0444514100131631e-06   2.0409230029526491e-06   2.0456553007714054e-06   2.0445153516691683e-06   2.0445543508017930e-06   2.0457871752034596e-06   2.0411512069183958e-06   2.0447354088174094e-06   2.0354540570135503e-06   2.0413625807834075e-06   2.0274766113483169e-06   2.0356768058892151e-06   2.0172380705687244e-06   2.0276917669185213e-06   2.0047630742723464e-06   2.0174266826747371e-06   1.9900816481605040e-06   2.0049062565941427e-06   1.9732291269473661e-06   1.9901606236724175e-06   1.9542460704411800e-06   1.9732252730803522e-06   1.9331781677847922e-06   1.9541409639855179e-06   1.9100761241426847e-06   1.9329536293130183e-06   1.8849955388815930e-06   1.9097142614542117e-06   1.8579967733800888e-06   1.8844787903772154e-06   1.8291448049697020e-06   1.8573079501793402e-06   1.7985090694386870e-06   1.8282671324026110e-06   1.7661632937778508e-06   1.7974262270979188e-06   1.7321853192375772e-06   1.7648594551455883e-06   1.6966569133086157e-06   1.7306451894678230e-06   1.6596635725442371e-06   1.6948657660021756e-06   1.6212943177299718e-06   1.6576072852806719e-06   1.5816414783755481e-06   1.6189594060206005e-06   1.5408004694244999e-06   1.5790151277417620e-06   1.4988695649571361e-06   1.5378705664752267e-06   1.4559496577282126e-06   1.4956247263466334e-06   1.4121440183494375e-06   1.4523792573178653e-06   1.3675580471457147e-06   1.4082382128623647e-06   1.3222990193373876e-06   1.3633077995372427e-06   1.2764758281734535e-06   1.3176961204928008e-06   1.2301987222960959e-06   1.2715129166088590e-06   1.1835790412600358e-06   1.2248693014514229e-06   1.1367289476803065e-06   1.1778774949998115e-06   1.0897611584767919e-06   1.1306505537264410e-06   1.0427886734197922e-06   1.0833020993797828e-06   9.9592450488042682e-07   1.0359460456708026e-06   9.4928140558512777e-07   9.8869632531439392e-07   9.0297159969778433e-07   9.4166661599575599e-07   8.5710651311539218e-07   8.9497006927805377e-07   8.1179650665844671e-07   8.4871903779173349e-07   7.6715061280689685e-07   8.0302480726997383e-07   7.2327627423872145e-07   7.5799733026700706e-07   6.8027908785998823e-07   7.1374496248984486e-07   6.3826255293953053e-07   6.7037420508057485e-07   5.9732782429169688e-07   6.2798944976300899e-07   5.5757347201997301e-07   5.8669273018299080e-07   5.1909524690769559e-07   5.4658347946580246e-07   4.8198585428653657e-07   5.0775829308129011e-07   4.4633473454865179e-07   4.7031070070467565e-07   4.1222785228806386e-07   4.3433094439851718e-07   3.7974749458983114e-07   3.9990576529026943e-07   3.4897207856172885e-07   3.6711819975726344e-07   3.1997596936398994e-07   3.3604738447874078e-07   2.9282930828668639e-07   3.0676837147696426e-07   2.6759785294219454e-07   2.7935195371420014e-07   2.4434282893890184e-07   2.5386450162737009e-07   2.2312079424778903e-07   2.3036781025008850e-07   2.0398351763335878e-07   2.0891895851065472e-07   1.8697787118668389e-07   1.8957017931751028e-07   1.7214573811828594e-07   1.7236874006110039e-07   1.5952393632151954e-07   1.5735683125298237e-07   1.4914415450728722e-07   1.4457145737011837e-07   1.4103288694882998e-07   1.3404431769700604e-07   1.3521130406307396e-07   1.2580165244204583e-07   1.3169478609273508e-07   1.1986401480697445e-07   1.3049088680779156e-07   1.1624596867332953e-07   1.1607661138301263e-07   1.0191168026970636e-07   1.1957835866318880e-07   1.0303829260711900e-07   1.2540874671614305e-07   1.0651995476858459e-07   1.3355396056898596e-07   1.1234786269172371e-07   1.4399428035801586e-07   1.2050745059249986e-07   1.5670432699534766e-07   1.3097856707584853e-07   1.7165322646741471e-07   1.4373556044061259e-07   1.8880472814491997e-07   1.5874734338078426e-07   2.0811730847548985e-07   1.7597746194307835e-07   2.2954427542255686e-07   1.9538417563317804e-07   2.5303388027533296e-07   2.1692055065191695e-07   2.7852943979732802e-07   2.4053456665710422e-07   3.0596946944154272e-07   2.6616923626015372e-07   3.3528782831104023e-07   2.9376273775828240e-07   3.6641387488484257e-07   3.2324855967419487e-07   3.9927263508623958e-07   3.5455565691631012e-07   4.3378497922759184e-07   3.8760861966589912e-07   4.6986781059747000e-07   4.2232785086699956e-07   5.0743426392574750e-07   4.5862975633336611e-07   5.4639391172221037e-07   4.9642694370804589e-07   5.8665298089268785e-07   5.3562843057800481e-07   6.2811457648288682e-07   5.7613986208791678e-07   6.7067891464466709e-07   6.1786373602877413e-07   7.1424356052796900e-07   6.6069963764796923e-07   7.5870367390693376e-07   7.0454447841549028e-07   8.0395226195505283e-07   7.4929274393845587e-07   8.4988043429241099e-07   7.9483674776089774e-07   8.9637766557944231e-07   8.4106688856909829e-07   9.4333206034039435e-07   8.8787191391531331e-07   9.9063062211792901e-07   9.3513918733817495e-07   1.0381595253297644e-06   9.8275495930054902e-07   1.0858043875756836e-06   1.0306046401748873e-06   1.1334505461809641e-06   1.0785730754582078e-06   1.1809833341637972e-06   1.1265448231218552e-06   1.2282883547345377e-06   1.1744044320489408e-06   1.2752517572138944e-06   1.2220367184921959e-06   1.3217605105705041e-06   1.2693270436317947e-06   1.3677026772324342e-06   1.3161615891780627e-06   1.4129676793643578e-06   1.3624276325280403e-06   1.4574465689744944e-06   1.4080138161542515e-06   1.5010322865729082e-06   1.4528104182145515e-06   1.5436199215449669e-06   1.4967096141411681e-06   1.5851069635702567e-06   1.5396057380484684e-06   1.6253935499556005e-06   1.5813955366333029e-06   1.6643827051123362e-06   1.6219784180054106e-06   1.7019805764466195e-06   1.6612566926450415e-06   1.7380966585142332e-06   1.6991358117370455e-06   1.7726440109129943e-06   1.7355245920802087e-06   1.8055394690191610e-06   1.7703354365659639e-06   1.8367038436739030e-06   1.8034845458119593e-06   1.8660621120615513e-06   1.8348921194927528e-06   1.8935435981580402e-06   1.8644825490382179e-06   1.9190821435097030e-06   1.8921845991028234e-06   1.9426162663641536e-06   1.9179315798941604e-06   1.9640893091379283e-06   1.9416615075463441e-06   1.9834495770196661e-06   1.9633172527516505e-06   2.0006504602895472e-06   1.9828466805482554e-06   2.0156505467087434e-06   2.0002027736926562e-06   2.0284137237441183e-06   2.0153437460643327e-06   2.0389092612313434e-06   2.0282331457148583e-06   2.0471118909541487e-06   2.0388399383440941e-06   2.0530018629280977e-06   2.0471385877058429e-06   2.0565649941022849e-06   2.0531091125050306e-06   2.0577927038309515e-06   2.0567371355771097e-06   2.0566820329928795e-06   2.0580139199287498e-06   2.0532356516534689e-06   2.0569363881635117e-06   2.0474618534090986e-06   2.0535071304659191e-06   2.0393745330026632e-06   2.0477343991150981e-06   2.0289931552642186e-06   2.0396320862289755e-06   2.0163427072021182e-06   2.0292196926261855e-06   2.0014536359785317e-06   2.0165222799736289e-06   1.9843617789058493e-06   2.0015704084374428e-06   1.9651082739892230e-06   1.9844000664499909e-06   1.9437394625066027e-06   1.9650525809763516e-06   1.9203067763843044e-06   1.9435745195342232e-06   1.8948666147955732e-06   1.9200175769054651e-06   1.8674802068740877e-06   1.8944384514412193e-06   1.8382134658034818e-06   1.8668987067319909e-06   1.8071368289287096e-06   1.8374646250861804e-06   1.7743250887840364e-06   1.8062070465087448e-06   1.7398572115497635e-06   1.7732011991413328e-06   1.7038161480018726e-06   1.7385265162560329e-06   1.6662886327556007e-06   1.7022664462300349e-06   1.6273649765537923e-06   1.6645082508052539e-06   1.5871388469086808e-06   1.6253427957512766e-06   1.5457070453656039e-06   1.5848643303387954e-06   1.5031692706671915e-06   1.5431702632437383e-06   1.4596278825776285e-06   1.5003609241050931e-06   1.4151876521728006e-06   1.4565393258690278e-06   1.3699555113075372e-06   1.4118109136099167e-06   1.3240402967500339e-06   1.3662833122406806e-06   1.2775524861039507e-06   1.3200660689985449e-06   1.2306039331276643e-06   1.2732703877071147e-06   1.1833075984297943e-06   1.2260088621605896e-06   1.1357772793357658e-06   1.1783952052537085e-06   1.0881273344165095e-06   1.1305439768445595e-06   1.0404724112455405e-06   1.0825703065850462e-06   9.9292716969607880e-07   1.0345896197906550e-06   9.4560600714165883e-07   9.8671735849826870e-07   8.9862278520970336e-07   9.3906870544556719e-07   8.5209055472456564e-07   8.9175830819773681e-07   8.0612128770959267e-07   8.4490000263212815e-07   7.6082560789765557e-07   7.9860654295786200e-07   7.1631252611545000e-07   7.5298933000584101e-07   6.7268918106362135e-07   7.0815814515362102e-07   6.3006058226472306e-07   6.6422088884133654e-07   5.8852936118753273e-07   6.2128332184580606e-07   5.4819552609724348e-07   5.7944881430525570e-07   5.0915622489176185e-07   5.3881809892132794e-07   4.7150551470130776e-07   4.9948903192489355e-07   4.3533413909312857e-07   4.6155636049392677e-07   4.0072931416938633e-07   4.2511149851182231e-07   3.6777452323814078e-07   3.9024231052392857e-07   3.3654932147080220e-07   3.5703290464214617e-07   3.0712915025255120e-07   3.2556343527645639e-07   2.7958516248028621e-07   2.9590991518836029e-07   2.5398405893404298e-07   2.6814403887320420e-07   2.3038793654185607e-07   2.4233301621699550e-07   2.0885414858561257e-07   2.1853941771742574e-07   1.8943517821014110e-07   1.9682103147894188e-07   1.7217852447585161e-07   1.7723073188417297e-07   1.5712660063477076e-07   1.5981635955809115e-07   1.4431664304198802e-07   1.4462061243832584e-07   1.3378062226154001e-07   1.3168094570891026e-07   1.2554513602040004e-07   1.2102947884349103e-07   1.1963122384656005e-07   1.1269290670703634e-07   1.1605395063427700e-07   1.0669241745341971e-07   1.1482145305881894e-07   1.0304363754668885e-07   1.0279887847450690e-07   9.1090976759478987e-08   1.0633307108522580e-07   9.2234923325377797e-08   1.1222442639388315e-07   9.5759089892374286e-08   1.2045861341769511e-07   1.0165461482017790e-07   1.3101557379190352e-07   1.0990681515966990e-07   1.4386961640219704e-07   1.2049533567454823e-07   1.5898951828554955e-07   1.3339424420103988e-07   1.7633862149052089e-07   1.4857210625772023e-07   1.9587493083555653e-07   1.6599205968482635e-07   2.1755121788430796e-07   1.8561189752459708e-07   2.4131513378348871e-07   2.0738416341137278e-07   2.6710933337076853e-07   2.3125625950042199e-07   2.9487161007963477e-07   2.5717056776861338e-07   3.2453504308926090e-07   2.8506458387712098e-07   3.560281