<?xml version="1.0"?>
<VTKFile type="UnstructuredGrid"  version="0.1"  >
<UnstructuredGrid>
<Piece  NumberOfPoints="16641" NumberOfCells="32768">
<Points>
<DataArray  type="Float64"  NumberOfComponents="3"  format="ascii">0 0 0  0.0078125 0 0  0.015625 0 0  0.0234375 0 0  0.03125 0 0  0.0390625 0 0  0.046875 0 0  0.0546875 0 0  0.0625 0 0  0.0703125 0 0  0.078125 0 0  0.0859375 0 0  0.09375 0 0  0.1015625 0 0  0.109375 0 0  0.1171875 0 0  0.125 0 0  0.1328125 0 0  0.140625 0 0  0.1484375 0 0  0.15625 0 0  0.1640625 0 0  0.171875 0 0  0.1796875 0 0  0.1875 0 0  0.1953125 0 0  0.203125 0 0  0.2109375 0 0  0.21875 0 0  0.2265625 0 0  0.234375 0 0  0.2421875 0 0  0.25 0 0  0.2578125 0 0  0.265625 0 0  0.2734375 0 0  0.28125 0 0  0.2890625 0 0  0.296875 0 0  0.3046875 0 0  0.3125 0 0  0.3203125 0 0  0.328125 0 0  0.3359375 0 0  0.34375 0 0  0.3515625 0 0  0.359375 0 0  0.3671875 0 0  0.375 0 0  0.3828125 0 0  0.390625 0 0  0.3984375 0 0  0.40625 0 0  0.4140625 0 0  0.421875 0 0  0.4296875 0 0  0.4375 0 0  0.4453125 0 0  0.453125 0 0  0.4609375 0 0  0.46875 0 0  0.4765625 0 0  0.484375 0 0  0.4921875 0 0  0.5 0 0  0.5078125 0 0  0.515625 0 0  0.5234375 0 0  0.53125 0 0  0.5390625 0 0  0.546875 0 0  0.5546875 0 0  0.5625 0 0  0.5703125 0 0  0.578125 0 0  0.5859375 0 0  0.59375 0 0  0.6015625 0 0  0.609375 0 0  0.6171875 0 0  0.625 0 0  0.6328125 0 0  0.640625 0 0  0.6484375 0 0  0.65625 0 0  0.6640625 0 0  0.671875 0 0  0.6796875 0 0  0.6875 0 0  0.6953125 0 0  0.703125 0 0  0.7109375 0 0  0.71875 0 0  0.7265625 0 0  0.734375 0 0  0.7421875 0 0  0.75 0 0  0.7578125 0 0  0.765625 0 0  0.7734375 0 0  0.78125 0 0  0.7890625 0 0  0.796875 0 0  0.8046875 0 0  0.8125 0 0  0.8203125 0 0  0.828125 0 0  0.8359375 0 0  0.84375 0 0  0.8515625 0 0  0.859375 0 0  0.8671875 0 0  0.875 0 0  0.8828125 0 0  0.890625 0 0  0.8984375 0 0  0.90625 0 0  0.9140625 0 0  0.921875 0 0  0.9296875 0 0  0.9375 0 0  0.9453125 0 0  0.953125 0 0  0.9609375 0 0  0.96875 0 0  0.9765625 0 0  0.984375 0 0  0.9921875 0 0  1 0 0  0 0.0078125 0  0.0078125 0.0078125 0  0.015625 0.0078125 0  0.0234375 0.0078125 0  0.03125 0.0078125 0  0.0390625 0.0078125 0  0.046875 0.0078125 0  0.0546875 0.0078125 0  0.0625 0.0078125 0  0.0703125 0.0078125 0  0.078125 0.0078125 0  0.0859375 0.0078125 0  0.09375 0.0078125 0  0.1015625 0.0078125 0  0.109375 0.0078125 0  0.1171875 0.0078125 0  0.125 0.0078125 0  0.1328125 0.0078125 0  0.140625 0.0078125 0  0.1484375 0.0078125 0  0.15625 0.0078125 0  0.1640625 0.0078125 0  0.171875 0.0078125 0  0.1796875 0.0078125 0  0.1875 0.0078125 0  0.1953125 0.0078125 0  0.203125 0.0078125 0  0.2109375 0.0078125 0  0.21875 0.0078125 0  0.2265625 0.0078125 0  0.234375 0.0078125 0  0.2421875 0.0078125 0  0.25 0.0078125 0  0.2578125 0.0078125 0  0.265625 0.0078125 0  0.2734375 0.0078125 0  0.28125 0.0078125 0  0.2890625 0.0078125 0  0.296875 0.0078125 0  0.3046875 0.0078125 0  0.3125 0.0078125 0  0.3203125 0.0078125 0  0.328125 0.0078125 0  0.3359375 0.0078125 0  0.34375 0.0078125 0  0.3515625 0.0078125 0  0.359375 0.0078125 0  0.3671875 0.0078125 0  0.375 0.0078125 0  0.3828125 0.0078125 0  0.390625 0.0078125 0  0.3984375 0.0078125 0  0.40625 0.0078125 0  0.4140625 0.0078125 0  0.421875 0.0078125 0  0.4296875 0.0078125 0  0.4375 0.0078125 0  0.4453125 0.0078125 0  0.453125 0.0078125 0  0.4609375 0.0078125 0  0.46875 0.0078125 0  0.4765625 0.0078125 0  0.484375 0.0078125 0  0.4921875 0.0078125 0  0.5 0.0078125 0  0.5078125 0.0078125 0  0.515625 0.0078125 0  0.5234375 0.0078125 0  0.53125 0.0078125 0  0.5390625 0.0078125 0  0.546875 0.0078125 0  0.5546875 0.0078125 0  0.5625 0.0078125 0  0.5703125 0.0078125 0  0.578125 0.0078125 0  0.5859375 0.0078125 0  0.59375 0.0078125 0  0.6015625 0.0078125 0  0.609375 0.0078125 0  0.6171875 0.0078125 0  0.625 0.0078125 0  0.6328125 0.0078125 0  0.640625 0.0078125 0  0.6484375 0.0078125 0  0.65625 0.0078125 0  0.6640625 0.0078125 0  0.671875 0.0078125 0  0.6796875 0.0078125 0  0.6875 0.0078125 0  0.6953125 0.0078125 0  0.703125 0.0078125 0  0.7109375 0.0078125 0  0.71875 0.0078125 0  0.7265625 0.0078125 0  0.734375 0.0078125 0  0.7421875 0.0078125 0  0.75 0.0078125 0  0.7578125 0.0078125 0  0.765625 0.0078125 0  0.7734375 0.0078125 0  0.78125 0.0078125 0  0.7890625 0.0078125 0  0.796875 0.0078125 0  0.8046875 0.0078125 0  0.8125 0.0078125 0  0.8203125 0.0078125 0  0.828125 0.0078125 0  0.8359375 0.0078125 0  0.84375 0.0078125 0  0.8515625 0.0078125 0  0.859375 0.0078125 0  0.8671875 0.0078125 0  0.875 0.0078125 0  0.8828125 0.0078125 0  0.890625 0.0078125 0  0.8984375 0.0078125 0  0.90625 0.0078125 0  0.9140625 0.0078125 0  0.921875 0.0078125 0  0.9296875 0.0078125 0  0.9375 0.0078125 0  0.9453125 0.0078125 0  0.953125 0.0078125 0  0.9609375 0.0078125 0  0.96875 0.0078125 0  0.9765625 0.0078125 0  0.984375 0.0078125 0  0.9921875 0.0078125 0  1 0.0078125 0  0 0.015625 0  0.0078125 0.015625 0  0.015625 0.015625 0  0.0234375 0.015625 0  0.03125 0.015625 0  0.0390625 0.015625 0  0.046875 0.015625 0  0.0546875 0.015625 0  0.0625 0.015625 0  0.0703125 0.015625 0  0.078125 0.015625 0  0.0859375 0.015625 0  0.09375 0.015625 0  0.1015625 0.015625 0  0.109375 0.015625 0  0.1171875 0.015625 0  0.125 0.015625 0  0.1328125 0.015625 0  0.140625 0.015625 0  0.1484375 0.015625 0  0.15625 0.015625 0  0.1640625 0.015625 0  0.171875 0.015625 0  0.1796875 0.015625 0  0.1875 0.015625 0  0.1953125 0.015625 0  0.203125 0.015625 0  0.2109375 0.015625 0  0.21875 0.015625 0  0.2265625 0.015625 0  0.234375 0.015625 0  0.2421875 0.015625 0  0.25 0.015625 0  0.2578125 0.015625 0  0.265625 0.015625 0  0.2734375 0.015625 0  0.28125 0.015625 0  0.2890625 0.015625 0  0.296875 0.015625 0  0.3046875 0.015625 0  0.3125 0.015625 0  0.3203125 0.015625 0  0.328125 0.015625 0  0.3359375 0.015625 0  0.34375 0.015625 0  0.3515625 0.015625 0  0.359375 0.015625 0  0.3671875 0.015625 0  0.375 0.015625 0  0.3828125 0.015625 0  0.390625 0.015625 0  0.3984375 0.015625 0  0.40625 0.015625 0  0.4140625 0.015625 0  0.421875 0.015625 0  0.4296875 0.015625 0  0.4375 0.015625 0  0.4453125 0.015625 0  0.453125 0.015625 0  0.4609375 0.015625 0  0.46875 0.015625 0  0.4765625 0.015625 0  0.484375 0.015625 0  0.4921875 0.015625 0  0.5 0.015625 0  0.5078125 0.015625 0  0.515625 0.015625 0  0.5234375 0.015625 0  0.53125 0.015625 0  0.5390625 0.015625 0  0.546875 0.015625 0  0.5546875 0.015625 0  0.5625 0.015625 0  0.5703125 0.015625 0  0.578125 0.015625 0  0.5859375 0.015625 0  0.59375 0.015625 0  0.6015625 0.015625 0  0.609375 0.015625 0  0.6171875 0.015625 0  0.625 0.015625 0  0.6328125 0.015625 0  0.640625 0.015625 0  0.6484375 0.015625 0  0.65625 0.015625 0  0.6640625 0.015625 0  0.671875 0.015625 0  0.6796875 0.015625 0  0.6875 0.015625 0  0.6953125 0.015625 0  0.703125 0.015625 0  0.7109375 0.015625 0  0.71875 0.015625 0  0.7265625 0.015625 0  0.734375 0.015625 0  0.7421875 0.015625 0  0.75 0.015625 0  0.7578125 0.015625 0  0.765625 0.015625 0  0.7734375 0.015625 0  0.78125 0.015625 0  0.7890625 0.015625 0  0.796875 0.015625 0  0.8046875 0.015625 0  0.8125 0.015625 0  0.8203125 0.015625 0  0.828125 0.015625 0  0.8359375 0.015625 0  0.84375 0.015625 0  0.8515625 0.015625 0  0.859375 0.015625 0  0.8671875 0.015625 0  0.875 0.015625 0  0.8828125 0.015625 0  0.890625 0.015625 0  0.8984375 0.015625 0  0.90625 0.015625 0  0.9140625 0.015625 0  0.921875 0.015625 0  0.9296875 0.015625 0  0.9375 0.015625 0  0.9453125 0.015625 0  0.953125 0.015625 0  0.9609375 0.015625 0  0.96875 0.015625 0  0.9765625 0.015625 0  0.984375 0.015625 0  0.9921875 0.015625 0  1 0.015625 0  0 0.0234375 0  0.0078125 0.0234375 0  0.015625 0.0234375 0  0.0234375 0.0234375 0  0.03125 0.0234375 0  0.0390625 0.0234375 0  0.046875 0.0234375 0  0.0546875 0.0234375 0  0.0625 0.0234375 0  0.0703125 0.0234375 0  0.078125 0.0234375 0  0.0859375 0.0234375 0  0.09375 0.0234375 0  0.1015625 0.0234375 0  0.109375 0.0234375 0  0.1171875 0.0234375 0  0.125 0.0234375 0  0.1328125 0.0234375 0  0.140625 0.0234375 0  0.1484375 0.0234375 0  0.15625 0.0234375 0  0.1640625 0.0234375 0  0.171875 0.0234375 0  0.1796875 0.0234375 0  0.1875 0.0234375 0  0.1953125 0.0234375 0  0.203125 0.0234375 0  0.2109375 0.0234375 0  0.21875 0.0234375 0  0.2265625 0.0234375 0  0.234375 0.0234375 0  0.2421875 0.0234375 0  0.25 0.0234375 0  0.2578125 0.0234375 0  0.265625 0.0234375 0  0.2734375 0.0234375 0  0.28125 0.0234375 0  0.2890625 0.0234375 0  0.296875 0.0234375 0  0.3046875 0.0234375 0  0.3125 0.0234375 0  0.3203125 0.0234375 0  0.328125 0.0234375 0  0.3359375 0.0234375 0  0.34375 0.0234375 0  0.3515625 0.0234375 0  0.359375 0.0234375 0  0.3671875 0.0234375 0  0.375 0.0234375 0  0.3828125 0.0234375 0  0.390625 0.0234375 0  0.3984375 0.0234375 0  0.40625 0.0234375 0  0.4140625 0.0234375 0  0.421875 0.0234375 0  0.4296875 0.0234375 0  0.4375 0.0234375 0  0.4453125 0.0234375 0  0.453125 0.0234375 0  0.4609375 0.0234375 0  0.46875 0.0234375 0  0.4765625 0.0234375 0  0.484375 0.0234375 0  0.4921875 0.0234375 0  0.5 0.0234375 0  0.5078125 0.0234375 0  0.515625 0.0234375 0  0.5234375 0.0234375 0  0.53125 0.0234375 0  0.5390625 0.0234375 0  0.546875 0.0234375 0  0.5546875 0.0234375 0  0.5625 0.0234375 0  0.5703125 0.0234375 0  0.578125 0.0234375 0  0.5859375 0.0234375 0  0.59375 0.0234375 0  0.6015625 0.0234375 0  0.609375 0.0234375 0  0.6171875 0.0234375 0  0.625 0.0234375 0  0.6328125 0.0234375 0  0.640625 0.0234375 0  0.6484375 0.0234375 0  0.65625 0.0234375 0  0.6640625 0.0234375 0  0.671875 0.0234375 0  0.6796875 0.0234375 0  0.6875 0.0234375 0  0.6953125 0.0234375 0  0.703125 0.0234375 0  0.7109375 0.0234375 0  0.71875 0.0234375 0  0.7265625 0.0234375 0  0.734375 0.0234375 0  0.7421875 0.0234375 0  0.75 0.0234375 0  0.7578125 0.0234375 0  0.765625 0.0234375 0  0.7734375 0.0234375 0  0.78125 0.0234375 0  0.7890625 0.0234375 0  0.796875 0.0234375 0  0.8046875 0.0234375 0  0.8125 0.0234375 0  0.8203125 0.0234375 0  0.828125 0.0234375 0  0.8359375 0.0234375 0  0.84375 0.0234375 0  0.8515625 0.0234375 0  0.859375 0.0234375 0  0.8671
[...]
<CellData  Scalars="f_145509"> 
<DataArray  type="Float64"  Name="f_145509"  format="ascii">1.7448977296561935e-12   1.7448912062435218e-12   1.7467803109968637e-12   2.2029303590332945e-12   1.7482019488005817e-12   2.2047550014284330e-12   1.7491550830658848e-12   2.2059897497083048e-12   1.7496359927611156e-12   2.2066293384747502e-12   1.7496429999686428e-12   2.2066714046570946e-12   1.7491759023643202e-12   2.2061155504578551e-12   1.7482357752033376e-12   2.2049630266940631e-12   1.7468248917275121e-12   2.2032166101606194e-12   1.7449466844773498e-12   2.2008805466384254e-12   1.7426057213821428e-12   2.1979605174601929e-12   1.7398076869121633e-12   2.1944636143345759e-12   1.7365593643267856e-12   2.1903983163902747e-12   1.7328686172009135e-12   2.1857744666567401e-12   1.7287443694261913e-12   2.1806032468130299e-12   1.7241965832601377e-12   2.1748971495593695e-12   1.7192362352200347e-12   2.1686699483294480e-12   1.7138752897650092e-12   2.1619366642187683e-12   1.7081266707177357e-12   2.1547135300929080e-12   1.7020042304537579e-12   2.1470179518796394e-12   1.6955227168792240e-12   2.1388684670688046e-12   1.6886977382979376e-12   2.1302847005456173e-12   1.6815457262328061e-12   2.1212873178583106e-12   1.6740838962337290e-12   2.1118979759300850e-12   1.6663302067828127e-12   2.1021392713462630e-12   1.6583033164632043e-12   2.0920346864974161e-12   1.6500225393323946e-12   2.0816085333947923e-12   1.6415077987999553e-12   2.0708858956341108e-12   1.6327795799612968e-12   2.0598925683766222e-12   1.6238588805876419e-12   2.0486549966443753e-12   1.6147671608403247e-12   2.0372002120069579e-12   1.6055262918539934e-12   2.0255557678011680e-12   1.5961585033351533e-12   2.0137496731361716e-12   1.5866863302993561e-12   2.0018103257708565e-12   1.5771325590082600e-12   1.9897664440224781e-12   1.5675201722393551e-12   1.9776469977518851e-12   1.5578722941882587e-12   1.9654811389500372e-12   1.5482121349362490e-12   1.9532981317104263e-12   1.5385629347204120e-12   1.9411272820051001e-12   1.5289479080626672e-12   1.9289978671834630e-12   1.5193901880307048e-12   1.9169390657245439e-12   1.5099127706230650e-12   1.9049798870641265e-12   1.5005384594958148e-12   1.8931491018949768e-12   1.4912898111042350e-12   1.8814751729310696e-12   1.4821890804901442e-12   1.8699861865265365e-12   1.4732581677283634e-12   1.8587097850820272e-12   1.4645185652453782e-12   1.8476731005463141e-12   1.4559913061370893e-12   1.8369026892052218e-12   1.4476969134972470e-12   1.8264244676742865e-12   1.4396553510671917e-12   1.8162636505910331e-12   1.4318859751847868e-12   1.8064446899454739e-12   1.4244074881563142e-12   1.7969912161594926e-12   1.4172378932618060e-12   1.7879259812488888e-12   1.4103944514186367e-12   1.7792708040517936e-12   1.4038936396013823e-12   1.7710465176837222e-12   1.3977511111569119e-12   1.7632729193485519e-12   1.3919816581240934e-12   1.7559687227006208e-12   1.3865991756176318e-12   1.7491515127736842e-12   1.3816166283648554e-12   1.7428377036510942e-12   1.3770460194609803e-12   1.7370424988914835e-12   1.3728983614759744e-12   1.7317798549568340e-12   1.3691836499121552e-12   1.7270624475486799e-12   1.3659108391572437e-12   1.7229016411462574e-12   1.3630878208780168e-12   1.7193074615698653e-12   1.3607214050074771e-12   1.7162885718411597e-12   1.3588173033510075e-12   1.7138522512993213e-12   1.3573801158366651e-12   1.7120043781411151e-12   1.3564133193444363e-12   1.7107494150907089e-12   1.3559192593765098e-12   1.7100903987478134e-12   1.3558991443693398e-12   1.7100289322134202e-12   1.3563530427488535e-12   1.7105651811968562e-12   1.3572798827216256e-12   1.7116978735685180e-12   1.3586774548153871e-12   1.7134243023637056e-12   1.3605424171514843e-12   1.7157403322664613e-12   1.3628703034159716e-12   1.7186404094578675e-12   1.3656555335542933e-12   1.7221175749391745e-12   1.3688914270993838e-12   1.7261634811480718e-12   1.3725702191665852e-12   1.7307684119482584e-12   1.3766830790344279e-12   1.7359213059038337e-12   1.3812201312423146e-12   1.7416097826992600e-12   1.3861704792314543e-12   1.7478201727921233e-12   1.3915222313773676e-12   1.7545375500881562e-12   1.3972625293932211e-12   1.7617457675900846e-12   1.4033775790760448e-12   1.7694274960353211e-12   1.4098526832114062e-12   1.7775642652415655e-12   1.4166722766338531e-12   1.7861365081805455e-12   1.4238199633585881e-12   1.7951236076771687e-12   1.4312785556288303e-12   1.8045039455371410e-12   1.4390301148315611e-12   1.8142549540212060e-12   1.4470559941757078e-12   1.8243531695667682e-12   1.4553368829977492e-12   1.8347742885691228e-12   1.4638528525798169e-12   1.8454932250739247e-12   1.4725834034077633e-12   1.8564841702962037e-12   1.4815075136906203e-12   1.8677206537695804e-12   1.4906036890223537e-12   1.8791756058939207e-12   1.4998500131334825e-12   1.8908214219307502e-12   1.5092241994620829e-12   1.9026300270061799e-12   1.5187036435038153e-12   1.9145729421475503e-12   1.5282654757450885e-12   1.9266213510271977e-12   1.5378866151049419e-12   1.9387461674331454e-12   1.5475438225919505e-12   1.9509181029826437e-12   1.5572137551232143e-12   1.9631077351036909e-12   1.5668730192836459e-12   1.9752855749618229e-12   1.5764982248556253e-12   1.9874221351464592e-12   1.5860660379095086e-12   1.9994879968684877e-12   1.5955532331896895e-12   2.0114538763295156e-12   1.6049367456089848e-12   2.0232906900551063e-12   1.6141937205226999e-12   2.0349696188246698e-12   1.6233015624241004e-12   2.0464621697499794e-12   1.6322379816521352e-12   2.0577402361017984e-12   1.6409810385368977e-12   2.0687761541552079e-12   1.6495091843466599e-12   2.0795427565050794e-12   1.6578012979264816e-12   2.0900134205356043e-12   1.6658367167761791e-12   2.1001621108447904e-12   1.6735952605089288e-12   2.1099634135229801e-12   1.6810572436359839e-12   2.1193925592584623e-12   1.6882034729166333e-12   2.1284254307389389e-12   1.6950152214393365e-12   2.1370385470556820e-12   1.7014741660994272e-12   2.1452090132237351e-12   1.7075622644419385e-12   2.1529144142038185e-12   1.7132615253541932e-12   2.1601326165991637e-12   1.7185535810620315e-12   2.1668414079472239e-12   1.7234188575659730e-12   2.1730178327684335e-12   1.7278348571638881e-12   2.1786369221574236e-12   1.7317722668697964e-12   2.1836691140116084e-12   1.7351851216469955e-12   2.1880745978727720e-12   1.7379827889454838e-12   2.1917897594682899e-12   1.2852496561593258e-12   2.1946913982184527e-12   2.1998949898411036e-12   1.7437289134328437e-12   2.2020655247667560e-12   2.2020528668035832e-12   2.2036465761972590e-12   2.2036315269978557e-12   2.2046344004611308e-12   2.2046160212953966e-12   2.2050262008269603e-12   2.2050043700766078e-12   2.2048207579847950e-12   2.2047955320307851e-12   2.2040184462117140e-12   2.2039899161975722e-12   2.2026211723384854e-12   2.2025894350786391e-12   2.2006323260758492e-12   2.2005974798641236e-12   2.1980567454519305e-12   2.1980188906862320e-12   2.1949006906180527e-12   2.1948599309771261e-12   2.1911718207936292e-12   2.1911282641187464e-12   2.1868791715013350e-12   2.1868329303782548e-12   2.1820331304613557e-12   2.1819843225176221e-12   2.1766454114179377e-12   2.1765941594561132e-12   2.1707290254035081e-12   2.1706754573764425e-12   2.1642982493759106e-12   2.1642424982990993e-12   2.1573685919126783e-12   2.1573107956635891e-12   2.1499567562435859e-12   2.1498970573490299e-12   2.1420806003588712e-12   2.1420191457250212e-12   2.1337590944752222e-12   2.1336960350892114e-12   2.1250122758426726e-12   2.1249477664425141e-12   2.1158612009822193e-12   2.1157953997326766e-12   2.1063278953893195e-12   2.1062609635131873e-12   2.0964353010918405e-12   2.0963674025045401e-12   2.0862072217413925e-12   2.0861385226792800e-12   2.0756682658591897e-12   2.0755989344900149e-12   2.0648437879138667e-12   2.0647739939520021e-12   2.0537598277108670e-12   2.0536897420151474e-12   2.0424430480645590e-12   2.0423728422396879e-12   2.0309206709691598e-12   2.0308505169895093e-12   2.0192204123309908e-12   2.0191504821149466e-12   2.0073704156560660e-12   2.0073008806883000e-12   1.9953991844559710e-12   1.9953302153710751e-12   1.9833355138905618e-12   1.9832672801043740e-12   1.9712084217492298e-12   1.9711410910518439e-12   1.9590470787437602e-12   1.9589808169311806e-12   1.9468807384993266e-12   1.9468157089685858e-12   1.9347386672691001e-12   1.9346750306902432e-12   1.9226500736131725e-12   1.9225879875109576e-12   1.9106440382793539e-12   1.9105836567167124e-12   1.8987494442420853e-12   1.8986909174450097e-12   1.8869949072760639e-12   1.8869383813140484e-12   1.8754087071755261e-12   1.8753543236132137e-12   1.8640187197261703e-12   1.8639666153255079e-12   1.8528523496260290e-12   1.8528026560196198e-12   1.8419364646529291e-12   1.8418893080545342e-12   1.8312973308934617e-12   1.8312528318237710e-12   1.8209605496091162e-12   1.8209188226109845e-12   1.8109509956201401e-12   1.8109121490046845e-12   1.8012927574033384e-12   1.8012568930190787e-12   1.7920090791398183e-12   1.7919762921287372e-12   1.7831223047615516e-12   1.7830926833546039e-12   1.7746538241013859e-12   1.7746274494083155e-12   1.7666240214553912e-12   1.7666009673043808e-12   1.7590522264632346e-12   1.7590325592133522e-12   1.7519566676020753e-12   1.7519404460081259e-12   1.7453544282408288e-12   1.7453417032991556e-12   1.7392614055240218e-12   1.7392522203799581e-12   1.7336922720910442e-12   1.7336866619246080e-12   1.7286604407238822e-12   1.7286584326803386e-12   1.7241780320550149e-12   1.7241796451607574e-12   1.7202558453678156e-12   1.7202610905085340e-12   1.7169033325633449e-12   1.7169122124398338e-12   1.7141285754152320e-12   1.7141410845485425e-12   1.7119382660762422e-12   1.7119543907812335e-12   1.7103376909359314e-12   1.7103574094083354e-12   1.7093307178872253e-12   1.7093540001979969e-12   1.7089197869952983e-12   1.7089465951802552e-12   1.7091059045502226e-12   1.7091361926856659e-12   1.7098886406471527e-12   1.7099223549559933e-12   1.7112661301615852e-12   1.7113032091414193e-12   1.7132350771634695e-12   1.7132754517104265e-12   1.7157907628217005e-12   1.7158343564128333e-12   1.7189270566659581e-12   1.7189737855173039e-12   1.7226364312573329e-12   1.7226862045388859e-12   1.7269099801951280e-12   1.7269627002378707e-12   1.7317374394416116e-12   1.7317930019749827e-12   1.7371072118656539e-12   1.7371655062836198e-12   1.7430063950192943e-12   1.7430673046481571e-12   1.7494208119522357e-12   1.7494842143521230e-12   1.7563350451244401e-12   1.7564008124070930e-12   1.7637324732895113e-12   1.7638004724484858e-12   1.7715953111423559e-12   1.7716654044195208e-12   1.7799046517949916e-12   1.7799766970522736e-12   1.7886405119243312e-12   1.7887143630511132e-12   1.7977818793688482e-12   1.7978573867011716e-12   1.8073067632490581e-12   1.8073837740303780e-12   1.8171922462845474e-12   1.8172706051229003e-12   1.8274145393321073e-12   1.8274940887114047e-12   1.8379490378851553e-12   1.8380296186863919e-12   1.8487703805154043e-12   1.8488518325825575e-12   1.8598525089677730e-12   1.8599346716896167e-12   1.8711687298614213e-12   1.8712514428203964e-12   1.8826917777964704e-12   1.8827748814142356e-12   1.8943938796576200e-12   1.8944772159264756e-12   1.9062468200427030e-12   1.9063302332885248e-12   1.9182220075146958e-12   1.9183053452416959e-12   1.9302905416312221e-12   1.9303736553939398e-12   1.9424232804165903e-12   1.9425060268371016e-12   1.9545909081635700e-12   1.9546731499994467e-12   1.9667640033766109e-12   1.9668456107471010e-12   1.9789131065482229e-12   1.9789939582808079e-12   1.9910087876473263e-12   1.9910887728307926e-12   2.0030217129283477e-12   2.0031007326962866e-12   2.0149227109503014e-12   2.0150006805596568e-12   2.0266828373420647e-12   2.0267596886213814e-12   2.0382734380715405e-12   2.0383491223829952e-12   2.0496662107487277e-12   2.0497407025772558e-12   2.0608332634662161e-12   2.0609065649048729e-12   2.0717471705766617e-12   2.0718193169304197e-12   2.0823810245486975e-12   2.0824520916044862e-12   2.0927084828628968e-12   2.0927785963688499e-12   2.1027038084485462e-12   2.1027731568063839e-12   2.1123419015271060e-12   2.1124107531387416e-12   2.1215983197893906e-12   2.1216670473211187e-12   2.1304492822218329e-12   2.1305183974281977e-12   2.1388716494089575e-12   2.1389418545090084e-12   2.1468428687149672e-12   2.1469151345583566e-12   2.1543408657609297e-12   2.1544165547471843e-12   2.1613438513092213e-12   2.1614249176686384e-12   2.1678299936769701e-12   2.1679193216450394e-12   2.1737768823136267e-12   2.1738788750031728e-12   2.1791607101970288e-12   2.1792823288480690e-12   2.1839553151913990e-12   2.1841078442930843e-12   2.1881325662720318e-12   2.1883340049912657e-12   2.1916724815983550e-12   2.1919469708275851e-12   1.7392390374285168e-12   2.1949746757971244e-12   2.1974560763215341e-12   1.7408877307073170e-12   2.1993794642594034e-12   2.1993641708495215e-12   2.2007100252834376e-12   2.2006928929377933e-12   2.2014462023900716e-12   2.2014266567561018e-12   2.2015866946326199e-12   2.2015645210121949e-12   2.2011312907395518e-12   2.2011064515900270e-12   2.2000811377938716e-12   2.2000536693998231e-12   2.1984388102803818e-12   2.1984087790359017e-12   2.1962083168529037e-12   2.1961758027751635e-12   2.1933950885317118e-12   2.1933601794009910e-12   2.1900059610764225e-12   2.1899687504385159e-12   2.1860491548977872e-12   2.1860097413519460e-12   2.1815342527555550e-12   2.1814927396877919e-12   2.1764721752992838e-12   2.1764286707037914e-12   2.1708751539960548e-12   2.1708297703323097e-12   2.1647567014254595e-12   2.1647095554139707e-12   2.1581315787027059e-12   2.1580827911415702e-12   2.1510157602067539e-12   2.1509654557014355e-12   2.1434263953905403e-12   2.1433747021199596e-12   2.1353817679038477e-12   2.1353288173329353e-12   2.1269012520175776e-12   2.1268471785963232e-12   2.1180052664690915e-12   2.1179502073194882e-12   2.1087152256935566e-12   2.1086593203086145e-12   2.0990534888141965e-12   2.0989968787077228e-12   2.0890433062184264e-12   2.0889861346135268e-12   2.0787087640388555e-12   2.0786511755127317e-12   2.0680747266116613e-12   2.0680168667654090e-12   2.0571667769967449e-12   2.0571087921119738e-12   2.0460111557610475e-12   2.0459531924486060e-12   2.0346346981955351e-12   2.0345769030565178e-12   2.0230647699995963e-12   2.0230072893002410e-12   2.0113292018260541e-12   2.0112721811257537e-12   1.9994562224185029e-12   1.9993998062514139e-12   1.9874743910189038e-12   1.9874187225589004e-12   1.9754125287905121e-12   1.9753577495263879e-12   1.9632996497614421e-12   1.9632458991652671e-12   1.9511648910668920e-12   1.9511123062750498e-12   1.9390374430518282e-12   1.9389861585468956e-12   1.9269464790983313e-12   1.9268966264449648e-12   1.9149210856239999e-12   1.9148727931081742e-12   1.9029901920719236e-12   1.9029435844587178e-12   1.8911825014686974e-12   1.8911376997033122e-12   1.8795264213517047e-12   1.8794835422968765e-12   1.8680499955195741e-12   1.8680091516860447e-12   1.8567808365008145e-12   1.8567421358091544e-12   1.8457460592308364e-12   1.8457096047469363e-12   1.8349722157463708e-12   1.8349381054759166e-12   1.8244852312842697e-12   1.8244535579492566e-12   1.8143103419819535e-12   1.8142811928091019e-12   1.8044720340445310e-12   1.8044454905705034e-12   1.7949939848364607e-12   1.7949701227342647e-12   1.7858990059276386e-12   1.7858778948380992e-12   1.7772089880940377e-12   1.7771906914679273e-12   1.7689448486951189e-12   1.7689294236466912e-12   1.7611264812327938e-12   1.7611139784263350e-12   1.7537727075189967e-12   1.7537631710360423e-12   1.7469012322809583e-12   1.7468946995413844e-12   1.7405286005839072e-12   1.7405251022435312e-12   1.7346701579643175e-12   1.7346697178640649e-12   1.7293400134584006e-12   1.7293426485517971e-12   1.7245510055956851e-12   1.7245567259146701e-12   1.7203146715636181e-12   1.7203234801920520e-12   1.7166412192973716e-12   1.7166531123693292e-12   1.7135395029807545e-12   1.7135544696788318e-12   1.7110170016417487e-12   1.7110350242257185e-12   1.7090798011968602e-12   1.7091008550187226e-12   1.7077325796756626e-12   1.7077566332758462e-12   1.7069785960419517e-12   1.7070056111741364e-12   1.7068196822092914e-12   1.7068496139425456e-12   1.7072562387093594e-12   1.7072890355331325e-12   1.7082872335884658e-12   1.7083228375195564e-12   1.7099102048671740e-12   1.7099485515961017e-12   1.7121212664574103e-12   1.7121622854722321e-12   1.7149151173766965e-12   1.7149587321561554e-12   1.7182850544800004e-12   1.7183311826517738e-12   1.7222229884619557e-12   1.7222715420183291e-12   1.7267194632425693e-12   1.7267703487422292e-12   1.7317636786057380e-12   1.7318167974098862e-12   1.7373435160045720e-12   1.7373987645242080e-12   1.7434455675858304e-12   1.7435028375483356e-12   1.7500551682538542e-12   1.7501143469849473e-12   1.7571564307139546e-12   1.7572174014372332e-12   1.7647322834765891e-12   1.7647949256298593e-12   1.7727645115899081e-12   1.7728287011749027e-12   1.7812338001682536e-12   1.7812994100942158e-12   1.7901197804478920e-12   1.7901866809210895e-12   1.7994010784006239e-12   1.7994691373136244e-12   1.8090553655898045e-12   1.8091244489573980e-12   1.8190594124069549e-12   1.8191293847939980e-12   1.8293891432804311e-12   1.8294598682946075e-12   1.8400196938945766e-12   1.8400910346640346e-12   1.8509254702266875e-12   1.8509972899561179e-12   1.8620802092184931e-12   1.8621523717308649e-12   1.8734570409236742e-12   1.8735294112805973e-12   1.8850285520926931e-12   1.8851009972240682e-12   1.8967668507903804e-12   1.8968392401949304e-12   1.9086436321312819e-12   1.9087158386270792e-12   1.9206302447562567e-12   1.9207021453008840e-12   1.9326977580267740e-12   1.9327692345777741e-12   1.9448170295656909e-12   1.9448879701030183e-12   1.9569587731574987e-12   1.9570290727472403e-12   1.9690936265959930e-12   1.9691631886288191e-12   1.9811922194535408e-12   1.9812609570119993e-12   1.9932252404174931e-12   1.9932930778812535e-12   2.0051635039942968e-12   2.0052303788717220e-12   2.0169780162968315e-12   2.0170438813862066e-12   2.0286400397233558e-12   2.0287048656733609e-12   2.0401211560488029e-12   2.0401849344565981e-12   2.0513933277017768e-12   2.0514560748846103e-12   2.0624289566628452e-12   2.0624907183625271e-12   2.0732009406316640e-12   2.0732617978961471e-12   2.0836827255811330e-12   2.0837428023527773e-12   2.0938483541020984e-12   2.0939078270401229e-12   2.1036725082977952e-12   2.1037316197959799e-12   2.1131305458710963e-12   2.1131896215776787e-12   2.1221985275525270e-12   2.1222580003935768e-12   2.1308532332964925e-12   2.1309136769999320e-12   2.1390721640198863e-12   2.1391343407595134e-12   2.1468335250424965e-12   2.1468984542855129e-12   2.1541161876490177e-12   2.1541852469162891e-12   2.1608996293132400e-12   2.1609747022964389e-12   2.1671638690471067e-12   2.1672475601755149e-12   2.1728894664404309e-12   2.1729853932937287e-12   2.1780578108105402e-12   2.1781709290210662e-12   2.1826523810350536e-12   2.1827890659590372e-12   2.1866628740461351e-12   2.1868297164825076e-12   2.1900968570958194e-12   2.1902949954517620e-12   1.7371214098217681e-12   2.1932144650552133e-12   2.1932198230563074e-12   1.7363737419262200e-12   2.1948900953615667e-12   2.1948735922543231e-12   2.1959681490264114e-12   2.1959499581260181e-12   2.1964525954371355e-12   2.1964325040540542e-12   2.1963429163120025e-12   2.1963208002953291e-12   2.1956397054110149e-12   2.1956155288701020e-12   2.1943448385678329e-12   2.1943186213371201e-12   2.1924615539460815e-12   2.1924333467087749e-12   2.1899944799906858e-12   2.1899643503859062e-12   2.1869496377769790e-12   2.1869176634847282e-12   2.1833344309587570e-12   2.1833006964452380e-12   2.1791576290631330e-12   2.1791222240328229e-12   2.1744293464612774e-12   2.1743923650783714e-12   2.1691610179243922e-12   2.1691225583510327e-12   2.163365