<?xml version="1.0"?>
<VTKFile type="UnstructuredGrid"  version="0.1"  >
<UnstructuredGrid>
<Piece  NumberOfPoints="16641" NumberOfCells="32768">
<Points>
<DataArray  type="Float64"  NumberOfComponents="3"  format="ascii">0 0 0  0.0078125 0 0  0.015625 0 0  0.0234375 0 0  0.03125 0 0  0.0390625 0 0  0.046875 0 0  0.0546875 0 0  0.0625 0 0  0.0703125 0 0  0.078125 0 0  0.0859375 0 0  0.09375 0 0  0.1015625 0 0  0.109375 0 0  0.1171875 0 0  0.125 0 0  0.1328125 0 0  0.140625 0 0  0.1484375 0 0  0.15625 0 0  0.1640625 0 0  0.171875 0 0  0.1796875 0 0  0.1875 0 0  0.1953125 0 0  0.203125 0 0  0.2109375 0 0  0.21875 0 0  0.2265625 0 0  0.234375 0 0  0.2421875 0 0  0.25 0 0  0.2578125 0 0  0.265625 0 0  0.2734375 0 0  0.28125 0 0  0.2890625 0 0  0.296875 0 0  0.3046875 0 0  0.3125 0 0  0.3203125 0 0  0.328125 0 0  0.3359375 0 0  0.34375 0 0  0.3515625 0 0  0.359375 0 0  0.3671875 0 0  0.375 0 0  0.3828125 0 0  0.390625 0 0  0.3984375 0 0  0.40625 0 0  0.4140625 0 0  0.421875 0 0  0.4296875 0 0  0.4375 0 0  0.4453125 0 0  0.453125 0 0  0.4609375 0 0  0.46875 0 0  0.4765625 0 0  0.484375 0 0  0.4921875 0 0  0.5 0 0  0.5078125 0 0  0.515625 0 0  0.5234375 0 0  0.53125 0 0  0.5390625 0 0  0.546875 0 0  0.5546875 0 0  0.5625 0 0  0.5703125 0 0  0.578125 0 0  0.5859375 0 0  0.59375 0 0  0.6015625 0 0  0.609375 0 0  0.6171875 0 0  0.625 0 0  0.6328125 0 0  0.640625 0 0  0.6484375 0 0  0.65625 0 0  0.6640625 0 0  0.671875 0 0  0.6796875 0 0  0.6875 0 0  0.6953125 0 0  0.703125 0 0  0.7109375 0 0  0.71875 0 0  0.7265625 0 0  0.734375 0 0  0.7421875 0 0  0.75 0 0  0.7578125 0 0  0.765625 0 0  0.7734375 0 0  0.78125 0 0  0.7890625 0 0  0.796875 0 0  0.8046875 0 0  0.8125 0 0  0.8203125 0 0  0.828125 0 0  0.8359375 0 0  0.84375 0 0  0.8515625 0 0  0.859375 0 0  0.8671875 0 0  0.875 0 0  0.8828125 0 0  0.890625 0 0  0.8984375 0 0  0.90625 0 0  0.9140625 0 0  0.921875 0 0  0.9296875 0 0  0.9375 0 0  0.9453125 0 0  0.953125 0 0  0.9609375 0 0  0.96875 0 0  0.9765625 0 0  0.984375 0 0  0.9921875 0 0  1 0 0  0 0.0078125 0  0.0078125 0.0078125 0  0.015625 0.0078125 0  0.0234375 0.0078125 0  0.03125 0.0078125 0  0.0390625 0.0078125 0  0.046875 0.0078125 0  0.0546875 0.0078125 0  0.0625 0.0078125 0  0.0703125 0.0078125 0  0.078125 0.0078125 0  0.0859375 0.0078125 0  0.09375 0.0078125 0  0.1015625 0.0078125 0  0.109375 0.0078125 0  0.1171875 0.0078125 0  0.125 0.0078125 0  0.1328125 0.0078125 0  0.140625 0.0078125 0  0.1484375 0.0078125 0  0.15625 0.0078125 0  0.1640625 0.0078125 0  0.171875 0.0078125 0  0.1796875 0.0078125 0  0.1875 0.0078125 0  0.1953125 0.0078125 0  0.203125 0.0078125 0  0.2109375 0.0078125 0  0.21875 0.0078125 0  0.2265625 0.0078125 0  0.234375 0.0078125 0  0.2421875 0.0078125 0  0.25 0.0078125 0  0.2578125 0.0078125 0  0.265625 0.0078125 0  0.2734375 0.0078125 0  0.28125 0.0078125 0  0.2890625 0.0078125 0  0.296875 0.0078125 0  0.3046875 0.0078125 0  0.3125 0.0078125 0  0.3203125 0.0078125 0  0.328125 0.0078125 0  0.3359375 0.0078125 0  0.34375 0.0078125 0  0.3515625 0.0078125 0  0.359375 0.0078125 0  0.3671875 0.0078125 0  0.375 0.0078125 0  0.3828125 0.0078125 0  0.390625 0.0078125 0  0.3984375 0.0078125 0  0.40625 0.0078125 0  0.4140625 0.0078125 0  0.421875 0.0078125 0  0.4296875 0.0078125 0  0.4375 0.0078125 0  0.4453125 0.0078125 0  0.453125 0.0078125 0  0.4609375 0.0078125 0  0.46875 0.0078125 0  0.4765625 0.0078125 0  0.484375 0.0078125 0  0.4921875 0.0078125 0  0.5 0.0078125 0  0.5078125 0.0078125 0  0.515625 0.0078125 0  0.5234375 0.0078125 0  0.53125 0.0078125 0  0.5390625 0.0078125 0  0.546875 0.0078125 0  0.5546875 0.0078125 0  0.5625 0.0078125 0  0.5703125 0.0078125 0  0.578125 0.0078125 0  0.5859375 0.0078125 0  0.59375 0.0078125 0  0.6015625 0.0078125 0  0.609375 0.0078125 0  0.6171875 0.0078125 0  0.625 0.0078125 0  0.6328125 0.0078125 0  0.640625 0.0078125 0  0.6484375 0.0078125 0  0.65625 0.0078125 0  0.6640625 0.0078125 0  0.671875 0.0078125 0  0.6796875 0.0078125 0  0.6875 0.0078125 0  0.6953125 0.0078125 0  0.703125 0.0078125 0  0.7109375 0.0078125 0  0.71875 0.0078125 0  0.7265625 0.0078125 0  0.734375 0.0078125 0  0.7421875 0.0078125 0  0.75 0.0078125 0  0.7578125 0.0078125 0  0.765625 0.0078125 0  0.7734375 0.0078125 0  0.78125 0.0078125 0  0.7890625 0.0078125 0  0.796875 0.0078125 0  0.8046875 0.0078125 0  0.8125 0.0078125 0  0.8203125 0.0078125 0  0.828125 0.0078125 0  0.8359375 0.0078125 0  0.84375 0.0078125 0  0.8515625 0.0078125 0  0.859375 0.0078125 0  0.8671875 0.0078125 0  0.875 0.0078125 0  0.8828125 0.0078125 0  0.890625 0.0078125 0  0.8984375 0.0078125 0  0.90625 0.0078125 0  0.9140625 0.0078125 0  0.921875 0.0078125 0  0.9296875 0.0078125 0  0.9375 0.0078125 0  0.9453125 0.0078125 0  0.953125 0.0078125 0  0.9609375 0.0078125 0  0.96875 0.0078125 0  0.9765625 0.0078125 0  0.984375 0.0078125 0  0.9921875 0.0078125 0  1 0.0078125 0  0 0.015625 0  0.0078125 0.015625 0  0.015625 0.015625 0  0.0234375 0.015625 0  0.03125 0.015625 0  0.0390625 0.015625 0  0.046875 0.015625 0  0.0546875 0.015625 0  0.0625 0.015625 0  0.0703125 0.015625 0  0.078125 0.015625 0  0.0859375 0.015625 0  0.09375 0.015625 0  0.1015625 0.015625 0  0.109375 0.015625 0  0.1171875 0.015625 0  0.125 0.015625 0  0.1328125 0.015625 0  0.140625 0.015625 0  0.1484375 0.015625 0  0.15625 0.015625 0  0.1640625 0.015625 0  0.171875 0.015625 0  0.1796875 0.015625 0  0.1875 0.015625 0  0.1953125 0.015625 0  0.203125 0.015625 0  0.2109375 0.015625 0  0.21875 0.015625 0  0.2265625 0.015625 0  0.234375 0.015625 0  0.2421875 0.015625 0  0.25 0.015625 0  0.2578125 0.015625 0  0.265625 0.015625 0  0.2734375 0.015625 0  0.28125 0.015625 0  0.2890625 0.015625 0  0.296875 0.015625 0  0.3046875 0.015625 0  0.3125 0.015625 0  0.3203125 0.015625 0  0.328125 0.015625 0  0.3359375 0.015625 0  0.34375 0.015625 0  0.3515625 0.015625 0  0.359375 0.015625 0  0.3671875 0.015625 0  0.375 0.015625 0  0.3828125 0.015625 0  0.390625 0.015625 0  0.3984375 0.015625 0  0.40625 0.015625 0  0.4140625 0.015625 0  0.421875 0.015625 0  0.4296875 0.015625 0  0.4375 0.015625 0  0.4453125 0.015625 0  0.453125 0.015625 0  0.4609375 0.015625 0  0.46875 0.015625 0  0.4765625 0.015625 0  0.484375 0.015625 0  0.4921875 0.015625 0  0.5 0.015625 0  0.5078125 0.015625 0  0.515625 0.015625 0  0.5234375 0.015625 0  0.53125 0.015625 0  0.5390625 0.015625 0  0.546875 0.015625 0  0.5546875 0.015625 0  0.5625 0.015625 0  0.5703125 0.015625 0  0.578125 0.015625 0  0.5859375 0.015625 0  0.59375 0.015625 0  0.6015625 0.015625 0  0.609375 0.015625 0  0.6171875 0.015625 0  0.625 0.015625 0  0.6328125 0.015625 0  0.640625 0.015625 0  0.6484375 0.015625 0  0.65625 0.015625 0  0.6640625 0.015625 0  0.671875 0.015625 0  0.6796875 0.015625 0  0.6875 0.015625 0  0.6953125 0.015625 0  0.703125 0.015625 0  0.7109375 0.015625 0  0.71875 0.015625 0  0.7265625 0.015625 0  0.734375 0.015625 0  0.7421875 0.015625 0  0.75 0.015625 0  0.7578125 0.015625 0  0.765625 0.015625 0  0.7734375 0.015625 0  0.78125 0.015625 0  0.7890625 0.015625 0  0.796875 0.015625 0  0.8046875 0.015625 0  0.8125 0.015625 0  0.8203125 0.015625 0  0.828125 0.015625 0  0.8359375 0.015625 0  0.84375 0.015625 0  0.8515625 0.015625 0  0.859375 0.015625 0  0.8671875 0.015625 0  0.875 0.015625 0  0.8828125 0.015625 0  0.890625 0.015625 0  0.8984375 0.015625 0  0.90625 0.015625 0  0.9140625 0.015625 0  0.921875 0.015625 0  0.9296875 0.015625 0  0.9375 0.015625 0  0.9453125 0.015625 0  0.953125 0.015625 0  0.9609375 0.015625 0  0.96875 0.015625 0  0.9765625 0.015625 0  0.984375 0.015625 0  0.9921875 0.015625 0  1 0.015625 0  0 0.0234375 0  0.0078125 0.0234375 0  0.015625 0.0234375 0  0.0234375 0.0234375 0  0.03125 0.0234375 0  0.0390625 0.0234375 0  0.046875 0.0234375 0  0.0546875 0.0234375 0  0.0625 0.0234375 0  0.0703125 0.0234375 0  0.078125 0.0234375 0  0.0859375 0.0234375 0  0.09375 0.0234375 0  0.1015625 0.0234375 0  0.109375 0.0234375 0  0.1171875 0.0234375 0  0.125 0.0234375 0  0.1328125 0.0234375 0  0.140625 0.0234375 0  0.1484375 0.0234375 0  0.15625 0.0234375 0  0.1640625 0.0234375 0  0.171875 0.0234375 0  0.1796875 0.0234375 0  0.1875 0.0234375 0  0.1953125 0.0234375 0  0.203125 0.0234375 0  0.2109375 0.0234375 0  0.21875 0.0234375 0  0.2265625 0.0234375 0  0.234375 0.0234375 0  0.2421875 0.0234375 0  0.25 0.0234375 0  0.2578125 0.0234375 0  0.265625 0.0234375 0  0.2734375 0.0234375 0  0.28125 0.0234375 0  0.2890625 0.0234375 0  0.296875 0.0234375 0  0.3046875 0.0234375 0  0.3125 0.0234375 0  0.3203125 0.0234375 0  0.328125 0.0234375 0  0.3359375 0.0234375 0  0.34375 0.0234375 0  0.3515625 0.0234375 0  0.359375 0.0234375 0  0.3671875 0.0234375 0  0.375 0.0234375 0  0.3828125 0.0234375 0  0.390625 0.0234375 0  0.3984375 0.0234375 0  0.40625 0.0234375 0  0.4140625 0.0234375 0  0.421875 0.0234375 0  0.4296875 0.0234375 0  0.4375 0.0234375 0  0.4453125 0.0234375 0  0.453125 0.0234375 0  0.4609375 0.0234375 0  0.46875 0.0234375 0  0.4765625 0.0234375 0  0.484375 0.0234375 0  0.4921875 0.0234375 0  0.5 0.0234375 0  0.5078125 0.0234375 0  0.515625 0.0234375 0  0.5234375 0.0234375 0  0.53125 0.0234375 0  0.5390625 0.0234375 0  0.546875 0.0234375 0  0.5546875 0.0234375 0  0.5625 0.0234375 0  0.5703125 0.0234375 0  0.578125 0.0234375 0  0.5859375 0.0234375 0  0.59375 0.0234375 0  0.6015625 0.0234375 0  0.609375 0.0234375 0  0.6171875 0.0234375 0  0.625 0.0234375 0  0.6328125 0.0234375 0  0.640625 0.0234375 0  0.6484375 0.0234375 0  0.65625 0.0234375 0  0.6640625 0.0234375 0  0.671875 0.0234375 0  0.6796875 0.0234375 0  0.6875 0.0234375 0  0.6953125 0.0234375 0  0.703125 0.0234375 0  0.7109375 0.0234375 0  0.71875 0.0234375 0  0.7265625 0.0234375 0  0.734375 0.0234375 0  0.7421875 0.0234375 0  0.75 0.0234375 0  0.7578125 0.0234375 0  0.765625 0.0234375 0  0.7734375 0.0234375 0  0.78125 0.0234375 0  0.7890625 0.0234375 0  0.796875 0.0234375 0  0.8046875 0.0234375 0  0.8125 0.0234375 0  0.8203125 0.0234375 0  0.828125 0.0234375 0  0.8359375 0.0234375 0  0.84375 0.0234375 0  0.8515625 0.0234375 0  0.859375 0.0234375 0  0.8671
[...]
<CellData  Scalars="f_137060"> 
<DataArray  type="Float64"  Name="f_137060"  format="ascii">2.6111569446213344e-06   1.5100813463214575e-06   3.3805132642492749e-06   1.7653685598687272e-06   4.6614731461176105e-06   2.5355676101217855e-06   6.4506171897373440e-06   3.8183172797747912e-06   8.7434134550632389e-06   5.6102253878650595e-06   1.1534178603204851e-05   7.9067680967003791e-06   1.4816069557860014e-05   1.0702260901037249e-05   1.8581088395374219e-05   1.3989853980367881e-05   2.2820094674352744e-05   1.7761538654518760e-05   2.7522822903373612e-05   2.2008160462880041e-05   3.2677904083286078e-05   2.6719437035179580e-05   3.8272890737297298e-05   3.1883979879378097e-05   4.4294285084450953e-05   3.7489319578456078e-05   5.0727570116923557e-05   4.3521934090739211e-05   5.7557243399590106e-05   4.9967279933367764e-05   6.4766853435993286e-05   5.6809826077838449e-05   7.2339038472868581e-05   6.4033090406623988e-05   8.0255567608207950e-05   7.1619678607404502e-05   8.8497384089747383e-05   7.9551325370558565e-05   9.7044650678976358e-05   8.7808937778923441e-05   1.0587679695147443e-04   9.6372640765524168e-05   1.1497256843376448e-04   1.0522182450902685e-04   1.2431007741566294e-04   1.1433519367021421e-04   1.3386685533271159e-04   1.2369081830544991e-04   1.4361990659638758e-04   1.3326618635268732e-04   1.5354576370869990e-04   1.4303825756912129e-04   1.6362054354036618e-04   1.5298351875494680e-04   1.7382000466619960e-04   1.6307804014182163e-04   1.8411960555010843e-04   1.7329753284319244e-04   1.9449456348572965e-04   1.8361740715399570e-04   2.0491991415604139e-04   1.9401283160767107e-04   2.1537057161468226e-04   2.0445879265499123e-04   2.2582138861118172e-04   2.1493015476354614e-04   2.3624721705562085e-04   2.2540172086377131e-04   2.4662296848708426e-04   2.3584829293423344e-04   2.5692367447361785e-04   2.4624473258944918e-04   2.6712454664776263e-04   2.5656602160260388e-04   2.7720103639449742e-04   2.6678732205955415e-04   2.8712889391461208e-04   2.7688403616801582e-04   2.9688422660797216e-04   2.8683186543868776e-04   3.0644355659864428e-04   2.9660686918658120e-04   3.1578387727828093e-04   3.0618552217189312e-04   3.2488270866376783e-04   3.1554477125881090e-04   3.3371815157666750e-04   3.2466209088405140e-04   3.4226894039028480e-04   3.3351553734698656e-04   3.5051449421660331e-04   3.4208380166476791e-04   3.5843496653228989e-04   3.5034626086267008e-04   3.6601129291931463e-04   3.5828302770331245e-04   3.7322523704307948e-04   3.6587499852391598e-04   3.8005943459014331e-04   3.7310389930990238e-04   3.8649743505906817e-04   3.7995232972388906e-04   3.9252374144199367e-04   3.8640380498260608e-04   3.9812384753261436e-04   3.9244279562192832e-04   4.0328427289008012e-04   3.9805476488274509e-04   4.0799259530701877e-04   4.0322620374877660e-04   4.1223748075979518e-04   4.0794466348329747e-04   4.1600871068400215e-04   4.1219878564373048e-04   4.1929720663017066e-04   4.1597832941558472e-04   4.2209505211574416e-04   4.1927419632229075e-04   4.2439551169400790e-04   4.2207845212508351e-04   4.2619304716344058e-04   4.2438434593501748e-04   4.2748333093443197e-04   4.2618632645928403e-04   4.2826325642641012e-04   4.2748005539964786e-04   4.2853094556958264e-04   4.2826241787526743e-04   4.2828575328240161e-04   4.2853152994450035e-04   4.2752826902911744e-04   4.2828674309624616e-04   4.2626031541442882e-04   4.2752864581617424e-04   4.2448494371980362e-04   4.2625906218303396e-04   4.2220642657474607e-04   4.2448104740183326e-04   4.1943024763810516e-04   4.2219888046535892e-04   4.1616308835493415e-04   4.1941805382001709e-04   4.1241281182932151e-04   4.1614526010135981e-04   4.0818844391120990e-04   4.1238837598013670e-04   4.0350015138529779e-04   4.0815644321578364e-04   3.9835921744354780e-04   4.0345964680698943e-04   3.9277801450181130e-04   3.9830929042021588e-04   3.8676997438254028e-04   3.9271776915675690e-04   3.8034955592614744e-04   3.8669853968051788e-04   3.7353221012794612e-04   3.8026608776910186e-04   3.6633434290898691e-04   3.7343589338577972e-04   3.5877327557344324e-04   3.6622439338006529e-04   3.5086720309548622e-04   3.5864894187062586e-04   3.4263515024624930e-04   3.5072776845195529e-04   3.3409692580779293e-04   3.4247993423866470e-04   3.2527307482425660e-04   3.3392528599029546e-04   3.1618482914888020e-04   3.2508440827141923e-04   3.0685405631685831e-04   3.1597857390256812e-04   2.9730320689675419e-04   3.0662969273383947e-04   2.8755526046746324e-04   2.9706025889412709e-04   2.7763367033228361e-04   2.8729329666262772e-04   2.6756230705711449e-04   2.7735230507349107e-04   2.5736540111066959e-04   2.6726120134502412e-04   2.4706748456849027e-04   2.5704426340512220e-04   2.3669333216229653e-04   2.4672607148091787e-04   2.2626790176626682e-04   2.3633144903172952e-04   2.1581627443886245e-04   2.2588540311599883e-04   2.0536359421164372e-04   2.1541306431418198e-04   1.9493500774567902e-04   2.0493962639682982e-04   1.8455560403657245e-04   1.9449028586045685e-04   1.7425035427595352e-04   1.8409018151082138e-04   1.6404405203362615e-04   1.7376433420263456e-04   1.5396125391183853e-04   1.6353758690036799e-04   1.4402622081712699e-04   1.5343454521146190e-04   1.3426285999748575e-04   1.4347951853776097e-04   1.2469466797897602e-04   1.3369646199275857e-04   1.1534467456932850e-04   1.2410891922010406e-04   1.0623538802146404e-04   1.1473996627821438e-04   9.7388741566868144e-05   1.0561215668895609e-04   8.8826041393888689e-05   9.6747467854587063e-05   8.0567916237795991e-05   8.8167248921862938e-05   7.2634268736071532e-05   7.9892170259839376e-05   6.5044228634925550e-05   7.1942174700359536e-05   5.7816108038595462e-05   6.4336430632230669e-05   5.0967358810036650e-05   5.7093287134677218e-05   4.4514532274994528e-05   5.0230231258202209e-05   3.8473241409031826e-05   4.3763847603225150e-05   3.2858125650307524e-05   3.7709780366140950e-05   2.7682818582346882e-05   3.2082697991687210e-05   2.2959918731046794e-05   2.6896260656015833e-05   1.8700963846873822e-05   2.2163090799284423e-05   1.4916409192483256e-05   1.7894747024748245e-05   1.1615610680551740e-05   1.4101701781772945e-05   8.8068143314285679e-06   1.0793323457322975e-05   6.4971548783784893e-06   7.9778638351650949e-06   4.6926697440163133e-06   5.6624524715422142e-06   3.3983441869971036e-06   3.8531006399384150e-06   2.6182351094558358e-06   2.5547196723678970e-06   2.3558413809734790e-06   1.7711641483506228e-06   1.7637072195055630e-06   1.1810855692042523e-06   2.5340273624043559e-06   1.4361958583955935e-06   3.8168681581037240e-06   2.2065903747464615e-06   5.6089231735753606e-06   3.4900396499273179e-06   7.9056915995196184e-06   5.2831616329591787e-06   1.0701495048853371e-05   7.5814237013424455e-06   1.3989484422761615e-05   1.0379130515748940e-05   1.7761649656486875e-05   1.3669421441575896e-05   2.2008833895200291e-05   1.7444276840790388e-05   2.6720751797196076e-05   2.1694530834830905e-05   3.1886011508768750e-05   2.6409888970236095e-05   3.7492139961761967e-05   3.1578949884465343e-05   4.3525611239598786e-05   3.7189230444891318e-05   4.9971877790674572e-05   4.3227194034596324e-05   5.6815404350469398e-05   4.9678281727410424e-05   6.4039704424092653e-05   5.6526946196562969e-05   7.1627379195990021e-05   6.3756688198832317e-05   7.9560158743384815e-05   7.1350095496707655e-05   8.7818945443169288e-05   7.9288884090621489e-05   9.6383859441315250e-05   8.7553941650660706e-05   1.0523428607204628e-04   9.6125373014479580e-05   1.1434892508867597e-04   1.0498254763775932e-04   1.2370584160819898e-04   1.1410414886020604e-04   1.3328251860795950e-04   1.2346822488571054e-04   1.4305591086719989e-04   1.3305224131751722e-04   1.5300250020411639e-04   1.4283313514039562e-04   1.6309835190869300e-04   1.5278736999810281e-04   1.7331917214595760e-04   1.6289099266887717e-04   1.8364036632738636e-04   1.7311969051317451e-04   1.9403709815000642e-04   1.8344884988832636e-04   2.0448434929480302e-04   1.9385361523298407e-04   2.1495697953774148e-04   2.0430894881214080e-04   2.2542978720235923e-04   2.1478969087302917e-04   2.3587756976756519e-04   2.2527062014545979e-04   2.4627518448437917e-04   2.3572651449570834e-04   2.5659760884849973e-04   2.4613221158970651e-04   2.6682000084137089e-04   2.5646266941414033e-04   2.7691775868477592e-04   2.6669302656193449e-04   2.8686658006942071e-04   2.7679866203516007e-04   2.9664252066687958e-04   2.8675525451823226e-04   3.0622205177074040e-04   2.9653884093618695e-04   3.1558211693881759e-04   3.0612587414057907e-04   3.2470018753999366e-04   3.1549327959611869e-04   3.3355431699075587e-04   3.2461851096982487e-04   3.4212319360525748e-04   3.3347960441158098e-04   3.5038619197020379e-04   3.4205523144484844e-04   3.5832342257394395e-04   3.5032475038132284e-04   3.6591577977734433e-04   3.5826825599032412e-04   3.7314498779496979e-04   3.6586662750572285e-04   3.7999364471761747e-04   3.7310157464505656e-04   3.8644526450859603e-04   3.7995568166611967e-04   3.9248431663341444e-04   3.8641244939607221e-04   3.9809626356042117e-04   3.9245633489350340e-04   4.0326759571010311e-04   3.9807278897828225e-04   4.0798586408151671e-04   4.0324829120902460e-04   4.1223971017184701e-04   4.0797038253538598e-04   4.1601889340975919e-04   4.1222769524228901e-04   4.1931431579333148e-04   4.1600998040474026e-04   4.2211804380885089e-04   4.1930813254641646e-04   4.2442332753803288e-04   4.2211421157604397e-04   4.2622461694887415e-04   4.2442146191054553e-04   4.2751757520210793e-04   4.2622432877950525e-04   4.2829908917788544e-04   4.2751847154312572e-04   4.2856727685379377e-04   4.2830077422793692e-04   4.2832149195860635e-04   4.2856935291176070e-04   4.2756232539989066e-04   4.2832356038199790e-04   4.2629160389454887e-04   4.2756398756560476e-04   4.2451238553528332e-04   4.2629246215953605e-04   4.2222895242350342e-04   4.2451204419502588e-04   4.1944680026045482e-04   4.2222701866574078e-04   4.1617262517409573e-04   4.1944288511210423e-04   4.1241430753502419e-04   4.1616634443901348e-04   4.0818089294456764e-04   4.1240528272043167e-04   4.0348257039619884e-04   4.0816875217344239e-04   3.9833064774760259e-04   4.0346694930436429e-04   3.9273752446135693e-04   3.9831119036278564e-04   3.8671666164580542e-04   3.9271388406188050e-04   3.8028254965420899e-04   3.8668850159726274e-04   3.7345067318223402e-04   3.8024954422216292e-04   3.6623747389878176e-04   3.7341250831884892e-04   3.5866031081878110e-04   3.6619384800134862e-04   3.5073741853090351e-04   3.5861093545879017e-04   3.4248786322815263e-04   3.5068201915105536e-04   3.3393149675406701e-04   3.4242617980707136e-04   3.2508890885307333e-04   3.3386328443531406e-04   3.1598137751681876e-04   3.2501393853886460e-04   3.0663081780149461e-04   3.1589943642345040e-04   2.9705972905499559e-04   3.0654170997609334e-04   2.8729114076478406e-04   2.9696327585221365e-04   2.7734855711788960e-04   2.8718718128183541e-04   2.6725590050302457e-04   2.7723694858731193e-04   2.5703745393405701e-04   2.6713651864323411e-04   2.4671780267884340e-04   2.5691019325399078e-04   2.3632177516768907e-04   2.4658257673975883e-04   2.2587438333497462e-04   2.3617851679859041e-04   2.1540076253727516e-04   2.2572304480211251e-04   2.0492611121565859e-04   2.1524131566826537e-04   1.9447563042628740e-04   2.0475854747680126e-04   1.8407446339352277e-04   1.9429996095377228e-04   1.7374763523851817e-04   1.8389071897746397e-04   1.6351999304378063e-04   1.7355586626119837e-04   1.5341614636402390e-04   1.6332026937184707e-04   1.4346040837928361e-04   1.5320855719513251e-04   1.3367673779073503e-04   1.4324506204361990e-04   1.2408868163313585e-04   1.3345376150811119e-04   1.1471931915273932e-04   1.2385822122715123e-04   1.0559120685459820e-04   1.1448153872164579e-04   9.6726324889357383e-05   1.0534628840274806e-04   8.8146024936913285e-05   9.6474467917581836e-05   7.9870979670266249e-05   8.7887445996259341e-05   7.1921133985413684e-05   7.9605911880521011e-05   6.4315658093426457e-05   7.1649826519429318e-05   5.7072902662786577e-05   6.4038375634037749e-05   5.0210356091476891e-05   5.6789924832836989e-05   4.3744604103411310e-05   4.9921976864425686e-05   3.7691291791504521e-05   4.3451131201366179e-05   3.2065088303932938e-05   3.7393046078587600e-05   2.6879654362022421e-05   3.1762403191531891e-05   2.2147612856089329e-05   2.6572875243345962e-05   1.7880522857145267e-05   2.1837096603296774e-05   1.4088857510801085e-05   1.7566637431104676e-05   1.0781986522081735e-05   1.3771981772580836e-05   7.9681643799357705e-06   1.0462510409420942e-05   5.6545262446118133e-06   7.6464897768738658e-06   3.8470945341609107e-06   5.3310692755084054e-06   2.5507993841916688e-06   3.5222910976888846e-06   1.7695041223898510e-06   2.2251190466394336e-06   1.5059331331488051e-06   1.4434886345469015e-06   1.4328744338799565e-06   1.3678946818418846e-06   2.2021450402847043e-06   1.6218622541707847e-06   3.4838893512078659e-06   2.3902869344197388e-06   5.2747966539229901e-06   3.6710561116611952e-06   7.5703658006053245e-06   5.4608350645847920e-06   1.0364917304734829e-05   7.7551073841074446e-06   1.3651600901383555e-05   1.0548184595207539e-05   1.7422405741539982e-05   1.3833211667729960e-05   2.1668174658207476e-05   1.7602175861274543e-05   2.6378622432489797e-05   2.1845920148891494e-05   3.1542357707585317e-05   2.6554160957221391e-05   3.7146908232377916e-05   3.1715509744782846e-05   4.3178749177324722e-05   3.7317498025472786e-05   4.9623334321598511e-05   4.3346605532851157e-05   5.6465129955037985e-05   4.9788291301334954e-05   6.3687651334860126e-05   5.6627027488021149e-05   7.1273501579184755e-05   6.3846335768124172e-05   7.9204412878544311e-05   7.1428826178624355e-05   8.7461289877982168e-05   7.9356238287414544e-05   9.6024255150040379e-05   8.7609484539532813e-05   1.0487269659388840e-04   9.6168695695768549e-05   1.1398531667065538e-04   1.0501326820170320e-04   1.2334018333202742e-04   1.1412191339333066e-04   1.3291478250379687e-04   1.2347270839643509e-04   1.4268607202462367e-04   1.3304314858370272e-04   1.5263053689567872e-04   1.4281020148547579e-04   1.6272424565881254e-04   1.5275036201179372e-04   1.7294290785050567e-04   1.6283970880422884e-04   1.8326193230415005e-04   1.7305396166261377e-04   1.9365648623668371e-04   1.8336853981976831e-04   2.0410155488809683e-04   1.9375862100153298e-04   2.1457200166910729e-04   2.0419920103884027e-04   2.2504262857606341e-04   2.1466515398862782e-04   2.3548823679550262e-04   2.2513129252176183e-04   2.4588368732902103e-04   2.3557242850021982e-04   2.5620396143376316e-04   2.4596343357507182e-04   2.6642422086418509e-04   2.5627929960106563e-04   2.7651986762565212e-04   2.6649519885090466e-04   2.8646660318817327e-04   2.7658654374295040e-04   2.9624048697778679e-04   2.8652904602932249e-04   3.0581799401658861e-04   2.9629877526149119e-04   3.1517607157318403e-04   3.0587221640530161e-04   3.2429219468135497e-04   3.1522632646652378e-04   3.3314442037008667e-04   3.2433858998568690e-04   3.4171144052959866e-04   3.3318707324473101e-04   3.4997263322191180e-04   3.4175047710991791e-04   3.5790811237592924e-04   3.5000818832055117e-04   3.6549877565781149e-04   3.5794032916201070e-04   3.7272635054483180e-04   3.6552780531660012e-04   3.7957343830647181e-04   3.7275235191668005e-04   3.8602355590799123e-04   3.7959657750747522e-04   3.9206117576766580e-04   3.8604400593269969e-04   3.9767176315694209e-04   3.9207911607504848e-04   4.0284181120600290e-04   3.9768737923982458e-04   4.0755887344767056e-04   4.0285529414653274e-04   4.1181159384018839e-04   4.0757041945865531e-04   4.1558973407630523e-04   4.1182140379383104e-04   4.1888419827053796e-04   4.1559801302180888e-04   4.2168705488625848e-04   4.1889115494133576e-04   4.2399155584144045e-04   4.2169290119826514e-04   4.2579215274201612e-04   4.2399650638360253e-04   4.2708451027510358e-04   4.2579642426040284e-04   4.2786551659563984e-04   4.2708832115178507e-04   4.2813329088358591e-04   4.2786908632363400e-04   4.2788718778328741e-04   4.2813683953920245e-04   4.2712779905572422e-04   4.2789093549716134e-04   4.2585695201127375e-04   4.2713196548386877e-04   4.2407770519513815e-04   4.2586175580741495e-04   4.2179434093026446e-04   4.2408336348570883e-04   4.1901235504173139e-04   4.2180106879335791e-04   4.1573844353186751e-04   4.1902036499126940e-04   4.1198048649566628e-04   4.1574794500812633e-04   4.0774752903630323e-04   4.1199168536381150e-04   4.0304975954459296e-04   4.0776062709371123e-04   3.9789848503800660e-04   4.0306495403893392e-04   3.9230610395693505e-04   3.9791596819601391e-04   3.8628607625880760e-04   3.9232606252661341e-04   3.7985289096880050e-04   3.8630869106496282e-04   3.7302203125565088e-04   3.7987833648350008e-04   3.6580993711373381e-04   3.7305047518514523e-04   3.5823396576414851e-04   3.6584154000221135e-04   3.5031234977687606e-04   3.5826888061537800e-04   3.4206415321352677e-04   3.5035072169498739e-04   3.3350922566657230e-04   3.4210611906418744e-04   3.2466815444396843e-04   3.3355491375850339e-04   3.1556221500118962e-04   3.2471768423280022e-04   3.0621331972358415e-04   3.1561569681491614e-04   2.9664396517370157e-04   3.0627085451198508e-04   2.8687717791093506e-04   2.9670564428190189e-04   2.7693645913213279e-04   2.8694308287668149e-04   2.6684572811424905e-04   2.7700666150892917e-04   2.5662926466051938e-04   2.6692028932031529e-04   2.4631165076284583e-04   2.5670823585336258e-04   2.3591771150007279e-04   2.4639507274085094e-04   2.2547245537423262e-04   2.3600561463110078e-04   2.1500101426436062e-04   2.2556485955158880e-04   2.0452858307751619e-04   2.1509792889064445e-04   1.9408035928675070e-04   2.0463000707661750e-04   1.8368148252137403e-04   1.9418628114317165e-04   1.7335697426679370e-04   1.8379188034983737e-04   1.6313167794536703e-04   1.7347181590914954e-04   1.5303019946846707e-04   1.6325092109696878e-04   1.4307684836161193e-04   1.5315379183460182e-04   1.3329557968133417e-04   1.4320472784348719e-04   1.2370993685278651e-04   1.3342767459217800e-04   1.1434299552148750e-04   1.2384616616533338e-04   1.0521730863764882e-04   1.1448326914803326e-04   9.6354852857649336e-05   1.0536152774323447e-04   8.7776976416979803e-05   9.6502910208444157e-05   7.9504348616095101e-05   8.7928756767745585e-05   7.1556911050287258e-05   7.9659729138200491e-05   6.3953830742925652e-05   7.1715761807459929e-05   5.6713455264627677e-05   6.4116015220743916e-05   4.9853270048322630e-05   5.6878830963864131e-05   4.3389857986752650e-05   5.0021689157813215e-05   3.7338861506627803e-05   4.3561168155017863e-05   3.1714947275988480e-05   3.7512906744299880e-05   2.6531773743196119e-05   3.1891569034102000e-05   2.1801961764976186e-05   2.6710812236936462e-05   1.7537068628943096e-05   2.1983257649683353e-05   1.3747565898534280e-05   1.7720465197070528e-05   1.0442821684837022e-05   1.3932912065341329e-05   7.6310881321359770e-06   1.0629976196922037e-05   5.3194950367085344e-06   7.8199256879994226e-06   3.5140498118841170e-06   5.5099153679755676e-06   2.2196398612650819e-06   3.7059910778288860e-06   1.4400172035669452e-06   2.4130971716115978e-06   1.1776963536152131e-06   1.6350628835424206e-06   1.6176338680485795e-06   2.0688035014509183e-06   2.3842929147490618e-06   2.3207238624037628e-06   3.6621605753899503e-06   3.0850949460745004e-06   5.4479615263721411e-06   4.3598915016962356e-06   7.7372148707144886e-06   6.1418406969348767e-06   1.0524255523957302e-05   8.4264657588255778e-06   1.3802247140271365e-05   1.1208107388582151e-05   1.7563194711750413e-05   1.4479937174468388e-05   2.1797959742454649e-05   1.8233970445862206e-05   2.6496278770709159e-05   2.2461081485499162e-05   3.1646785288438079e-05   2.7151021977352302e-05   3.7237034896985430e-05   3.2292442807127020e-05   4.3253533501356883e-05   3.7872919091760292e-05   4.9681768382085804e-05   4.3878978250073397e-05   5.650624