<?xml version="1.0"?>
<VTKFile type="UnstructuredGrid"  version="0.1"  >
<UnstructuredGrid>
<Piece  NumberOfPoints="16641" NumberOfCells="32768">
<Points>
<DataArray  type="Float64"  NumberOfComponents="3"  format="ascii">0 0 0  0.0078125 0 0  0.015625 0 0  0.0234375 0 0  0.03125 0 0  0.0390625 0 0  0.046875 0 0  0.0546875 0 0  0.0625 0 0  0.0703125 0 0  0.078125 0 0  0.0859375 0 0  0.09375 0 0  0.1015625 0 0  0.109375 0 0  0.1171875 0 0  0.125 0 0  0.1328125 0 0  0.140625 0 0  0.1484375 0 0  0.15625 0 0  0.1640625 0 0  0.171875 0 0  0.1796875 0 0  0.1875 0 0  0.1953125 0 0  0.203125 0 0  0.2109375 0 0  0.21875 0 0  0.2265625 0 0  0.234375 0 0  0.2421875 0 0  0.25 0 0  0.2578125 0 0  0.265625 0 0  0.2734375 0 0  0.28125 0 0  0.2890625 0 0  0.296875 0 0  0.3046875 0 0  0.3125 0 0  0.3203125 0 0  0.328125 0 0  0.3359375 0 0  0.34375 0 0  0.3515625 0 0  0.359375 0 0  0.3671875 0 0  0.375 0 0  0.3828125 0 0  0.390625 0 0  0.3984375 0 0  0.40625 0 0  0.4140625 0 0  0.421875 0 0  0.4296875 0 0  0.4375 0 0  0.4453125 0 0  0.453125 0 0  0.4609375 0 0  0.46875 0 0  0.4765625 0 0  0.484375 0 0  0.4921875 0 0  0.5 0 0  0.5078125 0 0  0.515625 0 0  0.5234375 0 0  0.53125 0 0  0.5390625 0 0  0.546875 0 0  0.5546875 0 0  0.5625 0 0  0.5703125 0 0  0.578125 0 0  0.5859375 0 0  0.59375 0 0  0.6015625 0 0  0.609375 0 0  0.6171875 0 0  0.625 0 0  0.6328125 0 0  0.640625 0 0  0.6484375 0 0  0.65625 0 0  0.6640625 0 0  0.671875 0 0  0.6796875 0 0  0.6875 0 0  0.6953125 0 0  0.703125 0 0  0.7109375 0 0  0.71875 0 0  0.7265625 0 0  0.734375 0 0  0.7421875 0 0  0.75 0 0  0.7578125 0 0  0.765625 0 0  0.7734375 0 0  0.78125 0 0  0.7890625 0 0  0.796875 0 0  0.8046875 0 0  0.8125 0 0  0.8203125 0 0  0.828125 0 0  0.8359375 0 0  0.84375 0 0  0.8515625 0 0  0.859375 0 0  0.8671875 0 0  0.875 0 0  0.8828125 0 0  0.890625 0 0  0.8984375 0 0  0.90625 0 0  0.9140625 0 0  0.921875 0 0  0.9296875 0 0  0.9375 0 0  0.9453125 0 0  0.953125 0 0  0.9609375 0 0  0.96875 0 0  0.9765625 0 0  0.984375 0 0  0.9921875 0 0  1 0 0  0 0.0078125 0  0.0078125 0.0078125 0  0.015625 0.0078125 0  0.0234375 0.0078125 0  0.03125 0.0078125 0  0.0390625 0.0078125 0  0.046875 0.0078125 0  0.0546875 0.0078125 0  0.0625 0.0078125 0  0.0703125 0.0078125 0  0.078125 0.0078125 0  0.0859375 0.0078125 0  0.09375 0.0078125 0  0.1015625 0.0078125 0  0.109375 0.0078125 0  0.1171875 0.0078125 0  0.125 0.0078125 0  0.1328125 0.0078125 0  0.140625 0.0078125 0  0.1484375 0.0078125 0  0.15625 0.0078125 0  0.1640625 0.0078125 0  0.171875 0.0078125 0  0.1796875 0.0078125 0  0.1875 0.0078125 0  0.1953125 0.0078125 0  0.203125 0.0078125 0  0.2109375 0.0078125 0  0.21875 0.0078125 0  0.2265625 0.0078125 0  0.234375 0.0078125 0  0.2421875 0.0078125 0  0.25 0.0078125 0  0.2578125 0.0078125 0  0.265625 0.0078125 0  0.2734375 0.0078125 0  0.28125 0.0078125 0  0.2890625 0.0078125 0  0.296875 0.0078125 0  0.3046875 0.0078125 0  0.3125 0.0078125 0  0.3203125 0.0078125 0  0.328125 0.0078125 0  0.3359375 0.0078125 0  0.34375 0.0078125 0  0.3515625 0.0078125 0  0.359375 0.0078125 0  0.3671875 0.0078125 0  0.375 0.0078125 0  0.3828125 0.0078125 0  0.390625 0.0078125 0  0.3984375 0.0078125 0  0.40625 0.0078125 0  0.4140625 0.0078125 0  0.421875 0.0078125 0  0.4296875 0.0078125 0  0.4375 0.0078125 0  0.4453125 0.0078125 0  0.453125 0.0078125 0  0.4609375 0.0078125 0  0.46875 0.0078125 0  0.4765625 0.0078125 0  0.484375 0.0078125 0  0.4921875 0.0078125 0  0.5 0.0078125 0  0.5078125 0.0078125 0  0.515625 0.0078125 0  0.5234375 0.0078125 0  0.53125 0.0078125 0  0.5390625 0.0078125 0  0.546875 0.0078125 0  0.5546875 0.0078125 0  0.5625 0.0078125 0  0.5703125 0.0078125 0  0.578125 0.0078125 0  0.5859375 0.0078125 0  0.59375 0.0078125 0  0.6015625 0.0078125 0  0.609375 0.0078125 0  0.6171875 0.0078125 0  0.625 0.0078125 0  0.6328125 0.0078125 0  0.640625 0.0078125 0  0.6484375 0.0078125 0  0.65625 0.0078125 0  0.6640625 0.0078125 0  0.671875 0.0078125 0  0.6796875 0.0078125 0  0.6875 0.0078125 0  0.6953125 0.0078125 0  0.703125 0.0078125 0  0.7109375 0.0078125 0  0.71875 0.0078125 0  0.7265625 0.0078125 0  0.734375 0.0078125 0  0.7421875 0.0078125 0  0.75 0.0078125 0  0.7578125 0.0078125 0  0.765625 0.0078125 0  0.7734375 0.0078125 0  0.78125 0.0078125 0  0.7890625 0.0078125 0  0.796875 0.0078125 0  0.8046875 0.0078125 0  0.8125 0.0078125 0  0.8203125 0.0078125 0  0.828125 0.0078125 0  0.8359375 0.0078125 0  0.84375 0.0078125 0  0.8515625 0.0078125 0  0.859375 0.0078125 0  0.8671875 0.0078125 0  0.875 0.0078125 0  0.8828125 0.0078125 0  0.890625 0.0078125 0  0.8984375 0.0078125 0  0.90625 0.0078125 0  0.9140625 0.0078125 0  0.921875 0.0078125 0  0.9296875 0.0078125 0  0.9375 0.0078125 0  0.9453125 0.0078125 0  0.953125 0.0078125 0  0.9609375 0.0078125 0  0.96875 0.0078125 0  0.9765625 0.0078125 0  0.984375 0.0078125 0  0.9921875 0.0078125 0  1 0.0078125 0  0 0.015625 0  0.0078125 0.015625 0  0.015625 0.015625 0  0.0234375 0.015625 0  0.03125 0.015625 0  0.0390625 0.015625 0  0.046875 0.015625 0  0.0546875 0.015625 0  0.0625 0.015625 0  0.0703125 0.015625 0  0.078125 0.015625 0  0.0859375 0.015625 0  0.09375 0.015625 0  0.1015625 0.015625 0  0.109375 0.015625 0  0.1171875 0.015625 0  0.125 0.015625 0  0.1328125 0.015625 0  0.140625 0.015625 0  0.1484375 0.015625 0  0.15625 0.015625 0  0.1640625 0.015625 0  0.171875 0.015625 0  0.1796875 0.015625 0  0.1875 0.015625 0  0.1953125 0.015625 0  0.203125 0.015625 0  0.2109375 0.015625 0  0.21875 0.015625 0  0.2265625 0.015625 0  0.234375 0.015625 0  0.2421875 0.015625 0  0.25 0.015625 0  0.2578125 0.015625 0  0.265625 0.015625 0  0.2734375 0.015625 0  0.28125 0.015625 0  0.2890625 0.015625 0  0.296875 0.015625 0  0.3046875 0.015625 0  0.3125 0.015625 0  0.3203125 0.015625 0  0.328125 0.015625 0  0.3359375 0.015625 0  0.34375 0.015625 0  0.3515625 0.015625 0  0.359375 0.015625 0  0.3671875 0.015625 0  0.375 0.015625 0  0.3828125 0.015625 0  0.390625 0.015625 0  0.3984375 0.015625 0  0.40625 0.015625 0  0.4140625 0.015625 0  0.421875 0.015625 0  0.4296875 0.015625 0  0.4375 0.015625 0  0.4453125 0.015625 0  0.453125 0.015625 0  0.4609375 0.015625 0  0.46875 0.015625 0  0.4765625 0.015625 0  0.484375 0.015625 0  0.4921875 0.015625 0  0.5 0.015625 0  0.5078125 0.015625 0  0.515625 0.015625 0  0.5234375 0.015625 0  0.53125 0.015625 0  0.5390625 0.015625 0  0.546875 0.015625 0  0.5546875 0.015625 0  0.5625 0.015625 0  0.5703125 0.015625 0  0.578125 0.015625 0  0.5859375 0.015625 0  0.59375 0.015625 0  0.6015625 0.015625 0  0.609375 0.015625 0  0.6171875 0.015625 0  0.625 0.015625 0  0.6328125 0.015625 0  0.640625 0.015625 0  0.6484375 0.015625 0  0.65625 0.015625 0  0.6640625 0.015625 0  0.671875 0.015625 0  0.6796875 0.015625 0  0.6875 0.015625 0  0.6953125 0.015625 0  0.703125 0.015625 0  0.7109375 0.015625 0  0.71875 0.015625 0  0.7265625 0.015625 0  0.734375 0.015625 0  0.7421875 0.015625 0  0.75 0.015625 0  0.7578125 0.015625 0  0.765625 0.015625 0  0.7734375 0.015625 0  0.78125 0.015625 0  0.7890625 0.015625 0  0.796875 0.015625 0  0.8046875 0.015625 0  0.8125 0.015625 0  0.8203125 0.015625 0  0.828125 0.015625 0  0.8359375 0.015625 0  0.84375 0.015625 0  0.8515625 0.015625 0  0.859375 0.015625 0  0.8671875 0.015625 0  0.875 0.015625 0  0.8828125 0.015625 0  0.890625 0.015625 0  0.8984375 0.015625 0  0.90625 0.015625 0  0.9140625 0.015625 0  0.921875 0.015625 0  0.9296875 0.015625 0  0.9375 0.015625 0  0.9453125 0.015625 0  0.953125 0.015625 0  0.9609375 0.015625 0  0.96875 0.015625 0  0.9765625 0.015625 0  0.984375 0.015625 0  0.9921875 0.015625 0  1 0.015625 0  0 0.0234375 0  0.0078125 0.0234375 0  0.015625 0.0234375 0  0.0234375 0.0234375 0  0.03125 0.0234375 0  0.0390625 0.0234375 0  0.046875 0.0234375 0  0.0546875 0.0234375 0  0.0625 0.0234375 0  0.0703125 0.0234375 0  0.078125 0.0234375 0  0.0859375 0.0234375 0  0.09375 0.0234375 0  0.1015625 0.0234375 0  0.109375 0.0234375 0  0.1171875 0.0234375 0  0.125 0.0234375 0  0.1328125 0.0234375 0  0.140625 0.0234375 0  0.1484375 0.0234375 0  0.15625 0.0234375 0  0.1640625 0.0234375 0  0.171875 0.0234375 0  0.1796875 0.0234375 0  0.1875 0.0234375 0  0.1953125 0.0234375 0  0.203125 0.0234375 0  0.2109375 0.0234375 0  0.21875 0.0234375 0  0.2265625 0.0234375 0  0.234375 0.0234375 0  0.2421875 0.0234375 0  0.25 0.0234375 0  0.2578125 0.0234375 0  0.265625 0.0234375 0  0.2734375 0.0234375 0  0.28125 0.0234375 0  0.2890625 0.0234375 0  0.296875 0.0234375 0  0.3046875 0.0234375 0  0.3125 0.0234375 0  0.3203125 0.0234375 0  0.328125 0.0234375 0  0.3359375 0.0234375 0  0.34375 0.0234375 0  0.3515625 0.0234375 0  0.359375 0.0234375 0  0.3671875 0.0234375 0  0.375 0.0234375 0  0.3828125 0.0234375 0  0.390625 0.0234375 0  0.3984375 0.0234375 0  0.40625 0.0234375 0  0.4140625 0.0234375 0  0.421875 0.0234375 0  0.4296875 0.0234375 0  0.4375 0.0234375 0  0.4453125 0.0234375 0  0.453125 0.0234375 0  0.4609375 0.0234375 0  0.46875 0.0234375 0  0.4765625 0.0234375 0  0.484375 0.0234375 0  0.4921875 0.0234375 0  0.5 0.0234375 0  0.5078125 0.0234375 0  0.515625 0.0234375 0  0.5234375 0.0234375 0  0.53125 0.0234375 0  0.5390625 0.0234375 0  0.546875 0.0234375 0  0.5546875 0.0234375 0  0.5625 0.0234375 0  0.5703125 0.0234375 0  0.578125 0.0234375 0  0.5859375 0.0234375 0  0.59375 0.0234375 0  0.6015625 0.0234375 0  0.609375 0.0234375 0  0.6171875 0.0234375 0  0.625 0.0234375 0  0.6328125 0.0234375 0  0.640625 0.0234375 0  0.6484375 0.0234375 0  0.65625 0.0234375 0  0.6640625 0.0234375 0  0.671875 0.0234375 0  0.6796875 0.0234375 0  0.6875 0.0234375 0  0.6953125 0.0234375 0  0.703125 0.0234375 0  0.7109375 0.0234375 0  0.71875 0.0234375 0  0.7265625 0.0234375 0  0.734375 0.0234375 0  0.7421875 0.0234375 0  0.75 0.0234375 0  0.7578125 0.0234375 0  0.765625 0.0234375 0  0.7734375 0.0234375 0  0.78125 0.0234375 0  0.7890625 0.0234375 0  0.796875 0.0234375 0  0.8046875 0.0234375 0  0.8125 0.0234375 0  0.8203125 0.0234375 0  0.828125 0.0234375 0  0.8359375 0.0234375 0  0.84375 0.0234375 0  0.8515625 0.0234375 0  0.859375 0.0234375 0  0.8671
[...]
<CellData  Scalars="f_137039"> 
<DataArray  type="Float64"  Name="f_137039"  format="ascii">1.0523634162668656e+00   1.0523634134051274e+00   1.0511863982243426e+00   1.0741782871083874e+00   1.0484707314390309e+00   1.0717537962304109e+00   1.0444396059148595e+00   1.0680137775969492e+00   1.0390953702110486e+00   1.0629492620677861e+00   1.0324482097539431e+00   1.0565565934547128e+00   1.0245173746572735e+00   1.0488481511889942e+00   1.0153283035629002e+00   1.0398466246858646e+00   1.0049105663216236e+00   1.0295806802918945e+00   9.9329673769778892e-01   1.0180827574136675e+00   9.8052181584449205e-01   1.0053880287500878e+00   9.6662292497926716e-01   9.9153392086902314e-01   9.5163916175160890e-01   9.7655988640191016e-01   9.3561151632102069e-01   9.6050729750917507e-01   9.1858282230830379e-01   9.4341939312526801e-01   9.0059772281976158e-01   9.2534124453677391e-01   8.8170263210606725e-01   9.0631972667629446e-01   8.6194569436804425e-01   8.8640347905140771e-01   8.4137672942597563e-01   8.6564286229597909e-01   8.2004717420492090e-01   8.4408989903527065e-01   7.9801000533048305e-01   8.2179820652913960e-01   7.7531965902835442e-01   7.9882291370704228e-01   7.5203193522161405e-01   7.7522057394794675e-01   7.2820389881501790e-01   7.5104906082791689e-01   7.0389376761258371e-01   7.2636746213993753e-01   6.7916079685315089e-01   7.0123595977368003e-01   6.5406515411055144e-01   6.7571571033930478e-01   6.2866779531408112e-01   6.4986871124068368e-01   6.0303032687504354e-01   6.2375767087596568e-01   5.7721487283609174e-01   5.9744586614532880e-01   5.5128393259806785e-01   5.7099700415280952e-01   5.2530024102752737e-01   5.4447507415418661e-01   4.9932662112066689e-01   5.1794420395467689e-01   4.7342584360997902e-01   4.9146851126501256e-01   4.4766047083269600e-01   4.6511194825232605e-01   4.2209272289759314e-01   4.3893816106467898e-01   3.9678432117899387e-01   4.1301033535895082e-01   3.7179634735963718e-01   3.8739104532405549e-01   3.4718909583366775e-01   3.6214210901490440e-01   3.2302193433531906e-01   3.3732443937881285e-01   2.9935315718453898e-01   3.1299790083507911e-01   2.7623985208644536e-01   2.8922116441945178e-01   2.5373775889936639e-01   2.6605156968690269e-01   2.3190114027744099e-01   2.4354498681580172e-01   2.1078264907121538e-01   2.2175568304404347e-01   1.9043320377856304e-01   2.0073619219733679e-01   1.7090186520625195e-01   1.8053718986100695e-01   1.5223572109054540e-01   1.6120737100582419e-01   1.3447977020414226e-01   1.4279333387917298e-01   1.1767681723464571e-01   1.2533946710730423e-01   1.0186736745824221e-01   1.0888784438825289e-01   8.7089532470321918e-02   9.3478122550003095e-02   7.3378935329346681e-02   7.9147447195522899e-02   6.0768627703978423e-02   6.5930362448913510e-02   4.9289008957013512e-02   5.3858728769722003e-02   3.8967754429700310e-02   4.2961646052921451e-02   2.9829747532046667e-02   3.3265384492908390e-02   2.1897021706272897e-02   2.4793320089030284e-02   1.5188705636835767e-02   1.7565880116378978e-02   9.7209793944427296e-03   1.1600492893159882e-02   5.5070342156961997e-03   6.9115470214690285e-03   2.5570417741682021e-03   3.5103559583700428e-03   8.7812958376578881e-04   1.4051318170654819e-03   4.7436426611016511e-04   6.0096530484687091e-04   1.3467419832191049e-03   1.0998140181076586e-03   3.4931863433295580e-03   2.9004977507961056e-03   6.9085539842297173e-03   5.9987019632045252e-03   1.1584646753581387e-02   1.0386988134577880e-02   1.7510232980520773e-02   1.6054812125378713e-02   2.4671073667460894e-02   2.2988550498464252e-02   3.3049958572225958e-02   3.1171532951271334e-02   4.2626747259841474e-02   4.0584083720262412e-02   5.3378419485344268e-02   5.1203568684946479e-02   6.5279129770434513e-02   6.3004452118474205e-02   7.8300272754152106e-02   7.5958356430510687e-02   9.2410550536781433e-02   9.0034134361848026e-02   1.0757605208756120e-01   1.0519794233233316e-01   1.2376033323234742e-01   1.2141332470682142e-01   1.4092450926156955e-01   1.3864130187320609e-01   1.5902734626517676e-01   1.5684046639306759e-01   1.7802536731739912e-01   1.7596708291935853e-01   1.9787295370306560e-01   1.9597519787075132e-01   2.1852246368429976e-01   2.1681674917142307e-01   2.3992434454436301e-01   2.3844168685514255e-01   2.6202725864886811e-01   2.6079809427614170e-01   2.8477820869886294e-01   2.8383231825670718e-01   3.0812267320873837e-01   3.0748910042206667e-01   3.3200473647332929e-01   3.3171171487081536e-01   3.5636723655924213e-01   3.5644210861198894e-01   3.8115190214253891e-01   3.8162104815929410e-01   4.0629950543452142e-01   4.0718826569891187e-01   4.3175000833611510e-01   4.3308261397969999e-01   4.5744272089537763e-01   4.5924221717031322e-01   4.8331645239747500e-01   4.8560463265510029e-01   5.0930967645496339e-01   5.1210700774297324e-01   5.3536068537736770e-01   5.3868624332516857e-01   5.6140776045165519e-01   5.6527915697067210e-01   5.8738933141277205e-01   5.9182265178410409e-01   6.1324414623786849e-01   6.1825387833721923e-01   6.3891143674303463e-01   6.4451040866471010e-01   6.6433109077738950e-01   6.7053040088139393e-01   6.8944381891807949e-01   6.9625277319204870e-01   7.1419132859493628e-01   7.2161737161119432e-01   7.3851649066050840e-01   7.4656514272662233e-01   7.6236351785299172e-01   7.7103830142002483e-01   7.8567812947774363e-01   7.9498050637717887e-01   8.0840772876120259e-01   8.1833702516320961e-01   8.3050157176622086e-01   8.4105490831273511e-01   8.5191094305973203e-01   8.6308315516333134e-01   8.7258932613570750e-01   8.8437288608824449e-01   8.9249258099556972e-01   9.0487750770056830e-01   9.1157911882779863e-01   9.2455288612356534e-01   9.2981008803674958e-01   9.4335751460346617e-01   9.4714956443708698e-01   9.6125269194027319e-01   9.6356475951461340e-01   9.7820270279137611e-01   9.7902625386766018e-01   9.9417501807189268e-01   9.9350827584836598e-01   1.0091405154169169e+00   1.0069890512045285e+00   1.0230737463930355e+00   1.0194512781113385e+00   1.0359532762988040e+00   1.0308828070211018e+00   1.0477621551412963e+00   1.0412776947535751e+00   1.0584886187727063e+00   1.0506379146024574e+00   1.0681272223678906e+00   1.0589763094514448e+00   1.0766808272715747e+00   1.0663218876355305e+00   1.0841644428329282e+00   1.0727293147431003e+00   1.0906135148445699e+00   1.0782933889368571e+00   1.0961039836294812e+00   1.0832728325289991e+00   1.1008060164157554e+00   6.4236893023637798e-01   1.1128016276620643e+00   1.0741782884146909e+00   1.0511863979728828e+00   1.0722668007461091e+00   1.0722668015154417e+00   1.0689206030992713e+00   1.0694255308360074e+00   1.0642880803125088e+00   1.0651914284805530e+00   1.0583578824597377e+00   1.0596376047047600e+00   1.0511299833596066e+00   1.0527873188223003e+00   1.0426163002872866e+00   1.0446530971305423e+00   1.0328377113928202e+00   1.0352513717422029e+00   1.0218213169126715e+00   1.0246051465335291e+00   1.0095986422795018e+00   1.0127431284718167e+00   9.9620456185944528e-01   9.9969842132983278e-01   9.8167667771980727e-01   9.8550753156543336e-01   9.6605495881240255e-01   9.7020972775189451e-01   9.4938152435707990e-01   9.5384664729625213e-01   9.3170051149753552e-01   9.3646205632108226e-01   9.1305797867543526e-01   9.1810169662660956e-01   8.9350183421281215e-01   8.9881317886325862e-01   8.7308176349793776e-01   8.7864589723400743e-01   8.5184916097292107e-01   8.5765095312627693e-01   8.2985705213851824e-01   8.3588107853218407e-01   8.0716001201433529e-01   8.1339055422874817e-01   7.8381407224165622e-01   7.9023512274010865e-01   7.5987662172951087e-01   7.6647189149390416e-01   7.3540629945704383e-01   7.4215923207086409e-01   7.1046288204528985e-01   7.1735666814569343e-01   6.8510715757349228e-01   6.9212475860855438e-01   6.5940080449413951e-01   6.6652497380314657e-01   6.3340625519506499e-01   6.4061956775268125e-01   6.0718656184488196e-01   6.1447144267338116e-01   5.8080525521038662e-01   5.8814401294604701e-01   5.5432620332842686e-01   5.6170106190800839e-01   5.2781346298131848e-01   5.3520659956430705e-01   5.0133113502456117e-01   5.0872471598333091e-01   4.7494321670603512e-01   4.8231943464002885e-01   4.4871344662345308e-01   4.5605456081554946e-01   4.2270516301216671e-01   4.2999353695913756e-01   3.9698115008117663e-01   4.0419929100317598e-01   3.7160349002778348e-01   3.7873408960557992e-01   3.4663341682596382e-01   3.5365938985396767e-01   3.2213117011188352e-01   3.2903569486988438e-01   2.9815585319913263e-01   3.0492240883428812e-01   2.7476529001709904e-01   2.8137769667463486e-01   2.5201588903067795e-01   2.5845834414665220e-01   2.2996250671491658e-01   2.3621962398893276e-01   2.0865831789127973e-01   2.1471516176927849e-01   1.8815468729934692e-01   1.9399680953759654e-01   1.6850104682639391e-01   1.7411451987795579e-01   1.4974477704119263e-01   1.5511622788518906e-01   1.3193109403779288e-01   1.3704773466569131e-01   1.1510293961500878e-01   1.1995259910467140e-01   9.9300879767162092e-02   1.0387203151303841e-01   8.4563005984005693e-02   8.8844796808587784e-02   7.0924845304504061e-02   7.4907119643019382e-02   5.8419273035517208e-02   6.2092598468764790e-02   4.7076435672817503e-02   5.0432124567488010e-02   3.6923677154673339e-02   3.9953807817206088e-02   2.7985474460429184e-02   3.0682909515276163e-02   2.0283377498296441e-02   2.2641781392171996e-02   1.3835958629050493e-02   1.5849812074393961e-02   8.6587672840040628e-03   1.0323380703903791e-02   4.7642933701479238e-03   6.0758176904058226e-03   2.1619368341639126e-03   3.1173725789978533e-03   8.5798561361397064e-04   1.4551898948991409e-03   8.5560062829229946e-04   1.0932918740292352e-03   2.1548084418285414e-03   2.0325692176360200e-03   4.7525014389319248e-03   4.2707790330925493e-03   8.6424456625504870e-03   7.8025507219203032e-03   1.3815296251017520e-02   1.2619398900439326e-02   2.0258619931698252e-02   1.8709744502743625e-02   2.7956926125374194e-02   2.6058942797464828e-02   3.6891703787719603e-02   3.4649319253384721e-02   4.7041467627958397e-02   4.4460212381228895e-02   5.8381808933293866e-02   5.5468024055257692e-02   7.0885456887237949e-02   6.7646277152474205e-02   8.4522343159211186e-02   8.0965679566086829e-02   9.9259677050949513e-02   9.5394195906050208e-02   1.1506202330890308e-01   1.1089712530392648e-01   1.3189139040441722e-01   1.2743718584325717e-01   1.4970732253830560e-01   1.4497460603472132e-01   1.6846699857589173e-01   1.6346722054813551e-01   1.8812533600788905e-01   1.8287057480294278e-01   2.0863510311916747e-01   2.0313803223255270e-01   2.2994703283034032e-01   2.2422089019798105e-01   2.5200994625190631e-01   2.4606849678955545e-01   2.7477087486070551e-01   2.6862837781132026e-01   2.9817519506599560e-01   2.9184636442109502e-01   3.2216676072361522e-01   3.1566672723351513e-01   3.4668804409097287e-01   3.4003231368254860e-01   3.7168027689041866e-01   3.6488469024870951e-01   3.9708359811368293e-01   3.9016428773400025e-01   4.2283720421088361e-01   4.1581054959205649e-01   4.4887950211252070e-01   4.4176208316955839e-01   4.7514826334903593e-01   4.6795681655533478e-01   5.0158078459752498e-01   4.9433215289010207e-01   5.2811404671849582e-01   5.2082513218064241e-01   5.5468487710747394e-01   5.4737259021748186e-01   5.8123011373014111e-01   5.7391132419728619e-01   6.0768677234143365e-01   6.0037825502224329e-01   6.3399220897456077e-01   6.2671059484408065e-01   6.6008429199884611e-01   6.5284601229264516e-01   6.8590156690639292e-01   6.7872280034557730e-01   7.1138342661826282e-01   7.0428004465020289e-01   7.3647027926298769e-01   7.2945778977636500e-01   7.6110371604191629e-01   7.5419720932945244e-01   7.8522667987690242e-01   7.7844077112711374e-01   8.0878363458259328e-01   8.0213240480480419e-01   8.3172072720294055e-01   8.2521767035156834e-01   8.5398595761909146e-01   8.4764391804571881e-01   8.7552933912386532e-01   8.6936045733185907e-01   8.9630306460995024e-01   8.9031871462841439e-01   9.1626166353608307e-01   9.1047239789998546e-01   9.3536216585052412e-01   9.2977765239899601e-01   9.5356425640225051e-01   9.4819322161203889e-01   9.7083043688618142e-01   9.6568060448704918e-01   9.8712618267593732e-01   9.8220421447708217e-01   1.0024201085024569e+00   9.9773154657546526e-01   1.0166841400156645e+00   1.0122333542959285e+00   1.0298937043452812e+00   1.0256838491720319e+00   1.0420279472120899e+00   1.0380609474250473e+00   1.0530700063837095e+00   1.0493465997852915e+00   1.0630073767468617e+00   1.0595272879168109e+00   1.0718324666705656e+00   1.0685948579438862e+00   1.0795435947062118e+00   1.0765480657400699e+00   1.0861473075893251e+00   1.0833956950237498e+00   1.0916654091550777e+00   1.0891631352007292e+00   1.0961605352485246e+00   1.0939059702899001e+00   1.0998371235309945e+00   1.0977331405712223e+00   1.0832728345447538e+00   1.1008060228777008e+00   1.0717538006815068e+00   1.0484707337973158e+00   1.0694255329291824e+00   1.0689206061578158e+00   1.0656660812968499e+00   1.0656660814593131e+00   1.0605751713015852e+00   1.0610235371317942e+00   1.0541871181736253e+00   1.0550435359726598e+00   1.0465174047972861e+00   1.0477594271593333e+00   1.0375820358484129e+00   1.0391982946790617e+00   1.0274016962321602e+00   1.0293853785350571e+00   1.0160021682918590e+00   1.0183471915683868e+00   1.0034137336030453e+00   1.0061131137338353e+00   9.8967044018116723e-01   9.9271584815554170e-01   9.7480949834075115e-01   9.7819131246944779e-01   9.5887083740406431e-01   9.6257834292824518e-01   9.4189679357225153e-01   9.4591838861777677e-01   9.2393189147484966e-01   9.2825525119778352e-01   9.0502268411748810e-01   9.0963488130481762e-01   8.8521763020223387e-01   8.9010521762369665e-01   8.6456698827497247e-01   8.6971605513023087e-01   8.4312272153311363e-01   8.4851893252614263e-01   8.2093840374759364e-01   8.2656702724710052e-01   7.9806912364894467e-01   8.0391505436842170e-01   7.7457138552082594e-01   7.8061916351750260e-01   7.5050300207525722e-01   7.5673683329325292e-01   7.2592298410372491e-01   7.3232676128602114e-01   7.0089142436333085e-01   7.0744874801523427e-01   6.7546937355806669e-01   6.8216357602965427e-01   6.4971871212550303e-01   6.5653288501487295e-01   6.2370201848012052e-01   6.3061904049435247e-01   5.9748243224958386e-01   6.0448499919499665e-01   5.7112351426693364e-01   5.7819417264135753e-01   5.4468910411418991e-01   5.5181028352140538e-01   5.1824317401967113e-01   5.2539722350997364e-01   4.9184968413155872e-01   4.9901890802637194e-01   4.6557243199870257e-01   4.7273912826655246e-01   4.3947490620837087e-01   4.4662140480972917e-01   4.1362013773230372e-01   4.2072883867282307e-01   3.8807055100009630e-01   3.9512396357677870e-01   3.6288781806554177e-01   3.6986859999255323e-01   3.3813270993014638e-01   3.4502370882098815e-01   3.1386495550464638e-01   3.2064924655127930e-01   2.9014309817472828e-01   2.9680402359011687e-01   2.6702435666307667e-01   2.7354556408304964e-01   2.4456448790870786e-01   2.5092996962018105e-01   2.2281765470585049e-01   2.2901178433970720e-01   2.0183629610241355e-01   2.0784386554757589e-01   1.8167100191844160e-01   1.8747725680072894e-01   1.6237039083043367e-01   1.6796106638416425e-01   1.4398099413468363e-01   1.4934234917027439e-01   1.2654714605414341e-01   1.3166599342275920e-01   1.1011087484014814e-01   1.1497461462470421e-01   9.4711802367281786e-02   9.9308452205219222e-02   8.0387051072571186e-02   8.4705272958684893e-02   6.7171152324997943e-02   7.1200280872633803e-02   5.5095965305880013e-02   5.8826032732672874e-02   4.4190599285377420e-02   4.7612359307942893e-02   3.4481344662020907e-02   3.7586294448417379e-02   2.5991609528031565e-02   2.8772009799060652e-02   1.8741863454643688e-02   2.1190756866159115e-02   1.2749588201703648e-02   1.4860816072068388e-02   8.0292361537182260e-03   9.7974531031653992e-03   4.5921957102967991e-03   6.0128819580837628e-03   2.4467638683630410e-03   3.5162359831954989e-03   1.5981263435666075e-03   2.3135460949328798e-03   2.0483456731328477e-03   2.4077262520231829e-03   3.7963562219217122e-03   3.7985668634903831e-03   6.8379670078437997e-03   6.4827354481540433e-03   1.1165872233818635e-02   1.0453784772521763e-02   1.6769668950717461e-02   1.5702168894282366e-02   2.3635882736027892e-02   2.2215266359180457e-02   3.1748000159217818e-02   2.9977410755550014e-02   4.1086509289924363e-02   3.8969928930086981e-02   5.1628947000795580e-02   4.9171186603324701e-02   6.3349953744724199e-02   6.0556640568931494e-02   7.6221334519316050e-02   7.3098898203836624e-02   9.0212128750006657e-02   8.6767784702669298e-02   1.0528868443010783e-01   1.0153041567570403e-01   1.2141474051604634e-01   1.1735127753542929e-01   1.3855151458220502e-01   1.3419231352465757e-01   1.5665779890777379e-01   1.5201301688714763e-01   1.7569005909886806e-01   1.7077052873560172e-01   1.9560254160112639e-01   1.9041974315566521e-01   2.1634738412403276e-01   2.1091341711755973e-01   2.3787473521568331e-01   2.3220228583607055e-01   2.6013287358621839e-01   2.5423518324426730e-01   2.8306833690623201e-01   2.7695916765848816e-01   3.0662605184926944e-01   3.0031965102553326e-01   3.3074947173660008e-01   3.2426053339290917e-01   3.5538071443706493e-01   3.4872434214055364e-01   3.8046070657328995e-01   3.7365237343671098e-01   4.0592933023368305e-01   3.9898483628469311e-01   4.3172557239197423e-01   4.2466100381988836e-01   4.5778767825335692e-01   4.5061936308902845e-01   4.8405330741805769e-01   4.7679777010978008e-01   5.1045968809327857e-01   5.0313360596159196e-01   5.3694378166402723e-01   5.2956393555253511e-01   5.6344243976526487e-01   5.5602566794462105e-01   5.8989256886002606e-01   5.8245571872610757e-01   6.1623129453470926e-01   6.0879117231903368e-01   6.4239612476681351e-01   6.3496944737191185e-01   6.6832511568541453e-01   6.6092845970820346e-01   6.9395703970800593e-01   6.8660678915192563e-01   7.1923154685384183e-01   7.1194384409186773e-01   7.4408933517551001e-01   7.3688002680958142e-01   7.6847231200746990e-01   7.6135689929496209e-01   7.9232375989970893e-01   7.8531734587145063e-01   8.1558849938396016e-01   8.0870573891035036e-01   8.3821305088734532e-01   8.3146809804281641e-01   8.6014579405493918e-01   8.5355225316281824e-01   8.8133712391752028e-01   8.7490800197832697e-01   9.0173960728123448e-01   8.9548726699040260e-01   9.2130813309309478e-01   9.1524424911375057e-01   9.4000005874460402e-01   9.3413557999069419e-01   9.5777535518977519e-01   9.5212047113738196e-01   9.7459674330488755e-01   9.6916086120817280e-01   9.9042983006647145e-01   9.8522156233232183e-01   1.0052432391462907e+00   1.0002704116077943e+00   1.0190087400291117e+00   1.0142784280352508e+00   1.0317013885147910e+00   1.0272199932606292e+00   1.0432996870627838e+00   1.0390730738624228e+00   1.0537858108604736e+00   1.0498195364702061e+00   1.0631459926046705e+00   1.0594456404011927e+00   1.0713713132343969e+00   1.0679428953544607e+00   1.0784595425175081e+00   1.0753096391525634e+00   1.0844197385931797e+00   1.0815539984545377e+00   1.0892838842936050e+00   1.0866992161668554e+00   1.0931347168983605e+00   1.0907917353358390e+00   1.0961605406908557e+00   1.0939059764247807e+00   1.0782933958869538e+00   1.0961039960797030e+00   1.0680137850534985e+00   1.0444396104032476e+00   1.0651914334631705e+00   1.0642880856145447e+00   1.0610235397737928e+00   1.0605751737508999e+00   1.0555083024821155e+00   1.0555083021053493e+00   1.0486921443258606e+00   1.0491108054674474e+00   1.0405992189302093e+00   1.0414146504253621e+00   1.0312519556987916e+00   1.0324487997671075e+00   1.0206752058833517e+00   1.0222422050544999e+00   1.0088970558179757e+00   1.0108251721750501e+00   9.9594888757710798e-01   9.9822993397181170e-01   9.8186522000524690e-01   9.8449097992878765e-01   9.6668347435364188e-01   9.6964522201856906e-01   9.5044373213058753e-01   9.5373202141170810e-01   9.3318851167787764e-01   9.3679312272611237e-01   9.149625