<?xml version="1.0"?>
<VTKFile type="UnstructuredGrid"  version="0.1"  >
<UnstructuredGrid>
<Piece  NumberOfPoints="16641" NumberOfCells="32768">
<Points>
<DataArray  type="Float64"  NumberOfComponents="3"  format="ascii">0 0 0  0.0078125 0 0  0.015625 0 0  0.0234375 0 0  0.03125 0 0  0.0390625 0 0  0.046875 0 0  0.0546875 0 0  0.0625 0 0  0.0703125 0 0  0.078125 0 0  0.0859375 0 0  0.09375 0 0  0.1015625 0 0  0.109375 0 0  0.1171875 0 0  0.125 0 0  0.1328125 0 0  0.140625 0 0  0.1484375 0 0  0.15625 0 0  0.1640625 0 0  0.171875 0 0  0.1796875 0 0  0.1875 0 0  0.1953125 0 0  0.203125 0 0  0.2109375 0 0  0.21875 0 0  0.2265625 0 0  0.234375 0 0  0.2421875 0 0  0.25 0 0  0.2578125 0 0  0.265625 0 0  0.2734375 0 0  0.28125 0 0  0.2890625 0 0  0.296875 0 0  0.3046875 0 0  0.3125 0 0  0.3203125 0 0  0.328125 0 0  0.3359375 0 0  0.34375 0 0  0.3515625 0 0  0.359375 0 0  0.3671875 0 0  0.375 0 0  0.3828125 0 0  0.390625 0 0  0.3984375 0 0  0.40625 0 0  0.4140625 0 0  0.421875 0 0  0.4296875 0 0  0.4375 0 0  0.4453125 0 0  0.453125 0 0  0.4609375 0 0  0.46875 0 0  0.4765625 0 0  0.484375 0 0  0.4921875 0 0  0.5 0 0  0.5078125 0 0  0.515625 0 0  0.5234375 0 0  0.53125 0 0  0.5390625 0 0  0.546875 0 0  0.5546875 0 0  0.5625 0 0  0.5703125 0 0  0.578125 0 0  0.5859375 0 0  0.59375 0 0  0.6015625 0 0  0.609375 0 0  0.6171875 0 0  0.625 0 0  0.6328125 0 0  0.640625 0 0  0.6484375 0 0  0.65625 0 0  0.6640625 0 0  0.671875 0 0  0.6796875 0 0  0.6875 0 0  0.6953125 0 0  0.703125 0 0  0.7109375 0 0  0.71875 0 0  0.7265625 0 0  0.734375 0 0  0.7421875 0 0  0.75 0 0  0.7578125 0 0  0.765625 0 0  0.7734375 0 0  0.78125 0 0  0.7890625 0 0  0.796875 0 0  0.8046875 0 0  0.8125 0 0  0.8203125 0 0  0.828125 0 0  0.8359375 0 0  0.84375 0 0  0.8515625 0 0  0.859375 0 0  0.8671875 0 0  0.875 0 0  0.8828125 0 0  0.890625 0 0  0.8984375 0 0  0.90625 0 0  0.9140625 0 0  0.921875 0 0  0.9296875 0 0  0.9375 0 0  0.9453125 0 0  0.953125 0 0  0.9609375 0 0  0.96875 0 0  0.9765625 0 0  0.984375 0 0  0.9921875 0 0  1 0 0  0 0.0078125 0  0.0078125 0.0078125 0  0.015625 0.0078125 0  0.0234375 0.0078125 0  0.03125 0.0078125 0  0.0390625 0.0078125 0  0.046875 0.0078125 0  0.0546875 0.0078125 0  0.0625 0.0078125 0  0.0703125 0.0078125 0  0.078125 0.0078125 0  0.0859375 0.0078125 0  0.09375 0.0078125 0  0.1015625 0.0078125 0  0.109375 0.0078125 0  0.1171875 0.0078125 0  0.125 0.0078125 0  0.1328125 0.0078125 0  0.140625 0.0078125 0  0.1484375 0.0078125 0  0.15625 0.0078125 0  0.1640625 0.0078125 0  0.171875 0.0078125 0  0.1796875 0.0078125 0  0.1875 0.0078125 0  0.1953125 0.0078125 0  0.203125 0.0078125 0  0.2109375 0.0078125 0  0.21875 0.0078125 0  0.2265625 0.0078125 0  0.234375 0.0078125 0  0.2421875 0.0078125 0  0.25 0.0078125 0  0.2578125 0.0078125 0  0.265625 0.0078125 0  0.2734375 0.0078125 0  0.28125 0.0078125 0  0.2890625 0.0078125 0  0.296875 0.0078125 0  0.3046875 0.0078125 0  0.3125 0.0078125 0  0.3203125 0.0078125 0  0.328125 0.0078125 0  0.3359375 0.0078125 0  0.34375 0.0078125 0  0.3515625 0.0078125 0  0.359375 0.0078125 0  0.3671875 0.0078125 0  0.375 0.0078125 0  0.3828125 0.0078125 0  0.390625 0.0078125 0  0.3984375 0.0078125 0  0.40625 0.0078125 0  0.4140625 0.0078125 0  0.421875 0.0078125 0  0.4296875 0.0078125 0  0.4375 0.0078125 0  0.4453125 0.0078125 0  0.453125 0.0078125 0  0.4609375 0.0078125 0  0.46875 0.0078125 0  0.4765625 0.0078125 0  0.484375 0.0078125 0  0.4921875 0.0078125 0  0.5 0.0078125 0  0.5078125 0.0078125 0  0.515625 0.0078125 0  0.5234375 0.0078125 0  0.53125 0.0078125 0  0.5390625 0.0078125 0  0.546875 0.0078125 0  0.5546875 0.0078125 0  0.5625 0.0078125 0  0.5703125 0.0078125 0  0.578125 0.0078125 0  0.5859375 0.0078125 0  0.59375 0.0078125 0  0.6015625 0.0078125 0  0.609375 0.0078125 0  0.6171875 0.0078125 0  0.625 0.0078125 0  0.6328125 0.0078125 0  0.640625 0.0078125 0  0.6484375 0.0078125 0  0.65625 0.0078125 0  0.6640625 0.0078125 0  0.671875 0.0078125 0  0.6796875 0.0078125 0  0.6875 0.0078125 0  0.6953125 0.0078125 0  0.703125 0.0078125 0  0.7109375 0.0078125 0  0.71875 0.0078125 0  0.7265625 0.0078125 0  0.734375 0.0078125 0  0.7421875 0.0078125 0  0.75 0.0078125 0  0.7578125 0.0078125 0  0.765625 0.0078125 0  0.7734375 0.0078125 0  0.78125 0.0078125 0  0.7890625 0.0078125 0  0.796875 0.0078125 0  0.8046875 0.0078125 0  0.8125 0.0078125 0  0.8203125 0.0078125 0  0.828125 0.0078125 0  0.8359375 0.0078125 0  0.84375 0.0078125 0  0.8515625 0.0078125 0  0.859375 0.0078125 0  0.8671875 0.0078125 0  0.875 0.0078125 0  0.8828125 0.0078125 0  0.890625 0.0078125 0  0.8984375 0.0078125 0  0.90625 0.0078125 0  0.9140625 0.0078125 0  0.921875 0.0078125 0  0.9296875 0.0078125 0  0.9375 0.0078125 0  0.9453125 0.0078125 0  0.953125 0.0078125 0  0.9609375 0.0078125 0  0.96875 0.0078125 0  0.9765625 0.0078125 0  0.984375 0.0078125 0  0.9921875 0.0078125 0  1 0.0078125 0  0 0.015625 0  0.0078125 0.015625 0  0.015625 0.015625 0  0.0234375 0.015625 0  0.03125 0.015625 0  0.0390625 0.015625 0  0.046875 0.015625 0  0.0546875 0.015625 0  0.0625 0.015625 0  0.0703125 0.015625 0  0.078125 0.015625 0  0.0859375 0.015625 0  0.09375 0.015625 0  0.1015625 0.015625 0  0.109375 0.015625 0  0.1171875 0.015625 0  0.125 0.015625 0  0.1328125 0.015625 0  0.140625 0.015625 0  0.1484375 0.015625 0  0.15625 0.015625 0  0.1640625 0.015625 0  0.171875 0.015625 0  0.1796875 0.015625 0  0.1875 0.015625 0  0.1953125 0.015625 0  0.203125 0.015625 0  0.2109375 0.015625 0  0.21875 0.015625 0  0.2265625 0.015625 0  0.234375 0.015625 0  0.2421875 0.015625 0  0.25 0.015625 0  0.2578125 0.015625 0  0.265625 0.015625 0  0.2734375 0.015625 0  0.28125 0.015625 0  0.2890625 0.015625 0  0.296875 0.015625 0  0.3046875 0.015625 0  0.3125 0.015625 0  0.3203125 0.015625 0  0.328125 0.015625 0  0.3359375 0.015625 0  0.34375 0.015625 0  0.3515625 0.015625 0  0.359375 0.015625 0  0.3671875 0.015625 0  0.375 0.015625 0  0.3828125 0.015625 0  0.390625 0.015625 0  0.3984375 0.015625 0  0.40625 0.015625 0  0.4140625 0.015625 0  0.421875 0.015625 0  0.4296875 0.015625 0  0.4375 0.015625 0  0.4453125 0.015625 0  0.453125 0.015625 0  0.4609375 0.015625 0  0.46875 0.015625 0  0.4765625 0.015625 0  0.484375 0.015625 0  0.4921875 0.015625 0  0.5 0.015625 0  0.5078125 0.015625 0  0.515625 0.015625 0  0.5234375 0.015625 0  0.53125 0.015625 0  0.5390625 0.015625 0  0.546875 0.015625 0  0.5546875 0.015625 0  0.5625 0.015625 0  0.5703125 0.015625 0  0.578125 0.015625 0  0.5859375 0.015625 0  0.59375 0.015625 0  0.6015625 0.015625 0  0.609375 0.015625 0  0.6171875 0.015625 0  0.625 0.015625 0  0.6328125 0.015625 0  0.640625 0.015625 0  0.6484375 0.015625 0  0.65625 0.015625 0  0.6640625 0.015625 0  0.671875 0.015625 0  0.6796875 0.015625 0  0.6875 0.015625 0  0.6953125 0.015625 0  0.703125 0.015625 0  0.7109375 0.015625 0  0.71875 0.015625 0  0.7265625 0.015625 0  0.734375 0.015625 0  0.7421875 0.015625 0  0.75 0.015625 0  0.7578125 0.015625 0  0.765625 0.015625 0  0.7734375 0.015625 0  0.78125 0.015625 0  0.7890625 0.015625 0  0.796875 0.015625 0  0.8046875 0.015625 0  0.8125 0.015625 0  0.8203125 0.015625 0  0.828125 0.015625 0  0.8359375 0.015625 0  0.84375 0.015625 0  0.8515625 0.015625 0  0.859375 0.015625 0  0.8671875 0.015625 0  0.875 0.015625 0  0.8828125 0.015625 0  0.890625 0.015625 0  0.8984375 0.015625 0  0.90625 0.015625 0  0.9140625 0.015625 0  0.921875 0.015625 0  0.9296875 0.015625 0  0.9375 0.015625 0  0.9453125 0.015625 0  0.953125 0.015625 0  0.9609375 0.015625 0  0.96875 0.015625 0  0.9765625 0.015625 0  0.984375 0.015625 0  0.9921875 0.015625 0  1 0.015625 0  0 0.0234375 0  0.0078125 0.0234375 0  0.015625 0.0234375 0  0.0234375 0.0234375 0  0.03125 0.0234375 0  0.0390625 0.0234375 0  0.046875 0.0234375 0  0.0546875 0.0234375 0  0.0625 0.0234375 0  0.0703125 0.0234375 0  0.078125 0.0234375 0  0.0859375 0.0234375 0  0.09375 0.0234375 0  0.1015625 0.0234375 0  0.109375 0.0234375 0  0.1171875 0.0234375 0  0.125 0.0234375 0  0.1328125 0.0234375 0  0.140625 0.0234375 0  0.1484375 0.0234375 0  0.15625 0.0234375 0  0.1640625 0.0234375 0  0.171875 0.0234375 0  0.1796875 0.0234375 0  0.1875 0.0234375 0  0.1953125 0.0234375 0  0.203125 0.0234375 0  0.2109375 0.0234375 0  0.21875 0.0234375 0  0.2265625 0.0234375 0  0.234375 0.0234375 0  0.2421875 0.0234375 0  0.25 0.0234375 0  0.2578125 0.0234375 0  0.265625 0.0234375 0  0.2734375 0.0234375 0  0.28125 0.0234375 0  0.2890625 0.0234375 0  0.296875 0.0234375 0  0.3046875 0.0234375 0  0.3125 0.0234375 0  0.3203125 0.0234375 0  0.328125 0.0234375 0  0.3359375 0.0234375 0  0.34375 0.0234375 0  0.3515625 0.0234375 0  0.359375 0.0234375 0  0.3671875 0.0234375 0  0.375 0.0234375 0  0.3828125 0.0234375 0  0.390625 0.0234375 0  0.3984375 0.0234375 0  0.40625 0.0234375 0  0.4140625 0.0234375 0  0.421875 0.0234375 0  0.4296875 0.0234375 0  0.4375 0.0234375 0  0.4453125 0.0234375 0  0.453125 0.0234375 0  0.4609375 0.0234375 0  0.46875 0.0234375 0  0.4765625 0.0234375 0  0.484375 0.0234375 0  0.4921875 0.0234375 0  0.5 0.0234375 0  0.5078125 0.0234375 0  0.515625 0.0234375 0  0.5234375 0.0234375 0  0.53125 0.0234375 0  0.5390625 0.0234375 0  0.546875 0.0234375 0  0.5546875 0.0234375 0  0.5625 0.0234375 0  0.5703125 0.0234375 0  0.578125 0.0234375 0  0.5859375 0.0234375 0  0.59375 0.0234375 0  0.6015625 0.0234375 0  0.609375 0.0234375 0  0.6171875 0.0234375 0  0.625 0.0234375 0  0.6328125 0.0234375 0  0.640625 0.0234375 0  0.6484375 0.0234375 0  0.65625 0.0234375 0  0.6640625 0.0234375 0  0.671875 0.0234375 0  0.6796875 0.0234375 0  0.6875 0.0234375 0  0.6953125 0.0234375 0  0.703125 0.0234375 0  0.7109375 0.0234375 0  0.71875 0.0234375 0  0.7265625 0.0234375 0  0.734375 0.0234375 0  0.7421875 0.0234375 0  0.75 0.0234375 0  0.7578125 0.0234375 0  0.765625 0.0234375 0  0.7734375 0.0234375 0  0.78125 0.0234375 0  0.7890625 0.0234375 0  0.796875 0.0234375 0  0.8046875 0.0234375 0  0.8125 0.0234375 0  0.8203125 0.0234375 0  0.828125 0.0234375 0  0.8359375 0.0234375 0  0.84375 0.0234375 0  0.8515625 0.0234375 0  0.859375 0.0234375 0  0.8671
[...]
<CellData  Scalars="f_132787"> 
<DataArray  type="Float64"  Name="f_132787"  format="ascii">4.2052903582742180e+00   4.2052903467247003e+00   4.2005919131699798e+00   4.2924700408502003e+00   4.1897406295331647e+00   4.2827816921618922e+00   4.1736324230734825e+00   4.2678363301391959e+00   4.1522768823281027e+00   4.2475983607137886e+00   4.1257147408351154e+00   4.2220530933478191e+00   4.0940229325593247e+00   4.1912499411314492e+00   4.0573031204943559e+00   4.1552795508677880e+00   4.0156734685925706e+00   4.1142564696086819e+00   3.9692641553470396e+00   4.0683103204499353e+00   3.9182150372930540e+00   4.0175816631543535e+00   3.8626744700485078e+00   3.9622200540335446e+00   3.8027986837798058e+00   3.9023831499481489e+00   3.7387514799274135e+00   3.8382362760702495e+00   3.6707040236134869e+00   3.7699522181952636e+00   3.5988347145735444e+00   3.6977110860379150e+00   3.5233290244413507e+00   3.6217001931557449e+00   3.4443793413541997e+00   3.5421139052699160e+00   3.3621847494756336e+00   3.4591534682038221e+00   3.2769507925910610e+00   3.3730267656306907e+00   3.1888891681653475e+00   3.2839480569964499e+00   3.0982174063625409e+00   3.1921376400518207e+00   3.0051584895052046e+00   3.0978215042152915e+00   2.9099404502966526e+00   3.0012309156987680e+00   2.8127959254708799e+00   2.9026019957682196e+00   2.7139617105511564e+00   2.8021752310757235e+00   2.6136782351773475e+00   2.7001950090455029e+00   2.5121890844004544e+00   2.5969090723937853e+00   2.4097404372103930e+00   2.4925680102929189e+00   2.3065805480936628e+00   2.3874246790333418e+00   2.2029591662145367e+00   2.2817336582230259e+00   2.0991269868984972e+00   2.1757506492810808e+00   1.9953350486222727e+00   2.0697319151017517e+00   1.8918341908621406e+00   1.9639336647662466e+00   1.7888744166637616e+00   1.8586114646934286e+00   1.6867043617269817e+00   1.7540196456481778e+00   1.5855706656488506e+00   1.6504106998421384e+00   1.4857174127761343e+00   1.5480346753521868e+00   1.3873855480601760e+00   1.4471386046642460e+00   1.2908123048248674e+00   1.3479658966374026e+00   1.1962306310118020e+00   1.2507557752385812e+00   1.1038686529958910e+00   1.1557426897590559e+00   1.0139491105082694e+00   1.0631557756849284e+00   9.2668884048053890e-01   9.7321829152916739e-01   8.4229824471981674e-01   8.8614709293783844e-01   7.6098079754355363e-01   8.0215210680138327e-01   6.8293254902398370e-01   7.2143583836859937e-01   6.0834166411795965e-01   6.4419287234261591e-01   5.3738795951438800e-01   5.7060942016501748e-01   4.7024248718784206e-01   5.0086285960085364e-01   4.0706710736654489e-01   4.3512132093900346e-01   3.4801411534479593e-01   3.7354327447523095e-01   2.9322586388705774e-01   3.1627715624308905e-01   2.4283442854235193e-01   2.6346100476484413e-01   1.9696128780141328e-01   2.1522213921011574e-01   1.5571703349899194e-01   1.7167684288281401e-01   1.1920110121207500e-01   1.3293009303637648e-01   8.7501536417749215e-02   9.9075300952729886e-02   6.0694780357502982e-02   7.0194095841393578e-02   3.8845488419259833e-02   4.6356122174970774e-02   2.2006373616428865e-02   2.7618877413882741e-02   1.0218082849282351e-02   1.4027570762786117e-02   3.5090978732671158e-03   5.6150182825650142e-03   1.8956691084842017e-03   2.4015629243500352e-03   5.3817775933746679e-03   4.3950270298563103e-03   1.3959125398790054e-02   1.1590695064293048e-02   2.7607159838202503e-02   2.3971325008013456e-02   4.6293120421958198e-02   4.1507192701174908e-02   6.9972125065482421e-02   6.4156163327763499e-02   9.8587273425222943e-02   9.1863796655047195e-02   1.3206979303214947e-01   1.2456347717997523e-01   1.7033920093093147e-01   1.6217657974626606e-01   2.1330350850036051e-01   2.0461265655749633e-01   2.6085943398847500e-01   2.5176966577561766e-01   3.1289266959434486e-01   3.0353421051470814e-01   3.6927814738925430e-01   3.5978182235018963e-01   4.2988035651323270e-01   4.2037726134487624e-01   4.9455366584832744e-01   4.8517484934444344e-01   5.6314268609421880e-01   5.5401882134336722e-01   6.3548264896845552e-01   6.2674371102899407e-01   7.1139981577218203e-01   7.0317474933327773e-01   7.9071189377503304e-01   7.8312830505000997e-01   8.7322850146937525e-01   8.6641231661980200e-01   9.5875162337258768e-01   9.5282678188801673e-01   1.0470761131059536e+00   1.0421642413049605e+00   1.1379901926020575e+00   1.1342102954271582e+00   1.2312759847757087e+00   1.2287441230174605e+00   1.3267100546219857e+00   1.3255390494338066e+00   1.4240639771038286e+00   1.4243630885098084e+00   1.5231048971994214e+00   1.5249795442349008e+00   1.6235961359602065e+00   1.6271475814619789e+00   1.7252977804316096e+00   1.7306228496090132e+00   1.8279673087852204e+00   1.8351580923720707e+00   1.9313602021072176e+00   1.9405037869284600e+00   2.0352305943138540e+00   2.0464087677045182e+00   2.1393319030382538e+00   2.1526208903002111e+00   2.2434174958011877e+00   2.2588876739022914e+00   2.3472413320000207e+00   2.3649569778877839e+00   2.4505586474291299e+00   2.4705776563610384e+00   2.5531266106077060e+00   2.5755002421584927e+00   2.6547050144385853e+00   2.6794776138378111e+00   2.7550569339144615e+00   2.7822656876096565e+00   2.8539494276446926e+00   2.8836240827952970e+00   2.9511542117255840e+00   2.9833168208563832e+00   3.0464483555409756e+00   3.0811129936480759e+00   3.1396149549870245e+00   3.1767874573682144e+00   3.2304438355974181e+00   3.2701215040058131e+00   3.3187322278220943e+00   3.3609035470562576e+00   3.4042854685205963e+00   3.4489297893790130e+00   3.4869176820916481e+00   3.5340049120944950e+00   3.5664524939189062e+00   3.6159427332252343e+00   3.6427237260501668e+00   3.6945668995577048e+00   3.7155761456463337e+00   3.7697115611950083e+00   3.7848662173875454e+00   3.8412220816274263e+00   3.8504629475110073e+00   3.9089557624760203e+00   3.9122488133670119e+00   3.9727826407412468e+00   3.9701208827067531e+00   4.0325863791014278e+00   4.0239922108760862e+00   4.0882653322309226e+00   4.0737937508251614e+00   4.1397339078259661e+00   4.1194770834490821e+00   4.1869244621189772e+00   4.1610186370677873e+00   4.2297901061021239e+00   4.1984265562074006e+00   4.2683092574141250e+00   4.2317525449212186e+00   4.3024936093976729e+00   4.2611131173444203e+00   4.3324035426268859e+00   4.2867276715201381e+00   4.3581813800507536e+00   4.3089765650643059e+00   4.3801318515712691e+00   4.3288977373600970e+00   4.3989376573570693e+00   2.5643192790725986e+00   4.4471408077043799e+00   4.2924700465020447e+00   4.2005919123962725e+00   4.2848343402721349e+00   4.2848343434003331e+00   4.2714623168888499e+00   4.2734817517848347e+00   4.2529500876514117e+00   4.2565616002593227e+00   4.2292524410485708e+00   4.2343675198018920e+00   4.2003692419598009e+00   4.2069928685649778e+00   4.1663480690323365e+00   4.1744877396745697e+00   4.1272723170992327e+00   4.1369177497426941e+00   4.0832502610619317e+00   4.0943747731803102e+00   4.0344078619912240e+00   4.0469734886892104e+00   3.9808844756861328e+00   3.9948461550161505e+00   3.9228303562521809e+00   3.9381386416967152e+00   3.8604052180869188e+00   3.8770078576239291e+00   3.7937773690049634e+00   3.8116201826775860e+00   3.7231231820538024e+00   3.7421505029334803e+00   3.6486267104760413e+00   3.6687816023280990e+00   3.5704793944318882e+00   3.5917037333070434e+00   3.4888797800165858e+00   3.5111142779325935e+00   3.4040332426607192e+00   3.4272174370993920e+00   3.3161516744466142e+00   3.3402239308921513e+00   3.2254531617238649e+00   3.2503506680539163e+00   3.1321616043906610e+00   3.1578203973165273e+00   3.0365063362994724e+00   3.0628613236722049e+00   2.9387216836750962e+00   2.9657067022173882e+00   2.8390465110966905e+00   2.8665943919718062e+00   2.7377237335206130e+00   2.7657663908281584e+00   2.6349998255212701e+00   2.6634683392521477e+00   2.5311242626379853e+00   2.5599490035754693e+00   2.4263490125935379e+00   2.4554597478341620e+00   2.3209279415056558e+00   2.3502539767654080e+00   2.2151162749393243e+00   2.2445865751810326e+00   2.1091699848488448e+00   2.1387133274599766e+00   2.0033452237012752e+00   2.0328903455869480e+00   1.8978977208823924e+00   1.9273734648137477e+00   1.7930821906964438e+00   1.8224176586983774e+00   1.6891517281082018e+00   1.7182764468004570e+00   1.5863572276469076e+00   1.6152012922181587e+00   1.4849467667521499e+00   1.5134410162059837e+00   1.3851650461527869e+00   1.4132412032578516e+00   1.2872527830903697e+00   1.3148436284798677e+00   1.1914461610726133e+00   1.2184856746649315e+00   1.0979762425654012e+00   1.1243997713330300e+00   1.0070684440068098e+00   1.0328128381587651e+00   9.1894197216382922e-01   9.4394574752453686e-01   8.3380931909665956e-01   8.5801279061574354e-01   7.5187573692495524e-01   7.7522117189077056e-01   6.7333876326726316e-01   6.9577050275864061e-01   5.9838773005958801e-01   6.1985233561488728e-01   5.2720332354924537e-01   5.4764969523954421e-01   4.5995714283336558e-01   4.7933664299710343e-01   3.9681129199889309e-01   4.1507785995513774e-01   3.3791798639390180e-01   3.5502825204800326e-01   2.8341919357990419e-01   2.9933257452935713e-01   2.3344628516665142e-01   2.4812508914000603e-01   1.8811972791569948e-01   2.0152923891569946e-01   1.4754879126035492e-01   1.5965735332176131e-01   1.1183128509669303e-01   1.2261037666098604e-01   8.1053324415815697e-02   9.0477628675020974e-02   5.5289125682207417e-02   6.3336586707282108e-02   3.4600825073714425e-02   4.1252703245067086e-02   1.9038333184303001e-02   2.4279247003543017e-02   8.6392120852148910e-03   1.2457176099897044e-02   3.4285895746093125e-03   5.8150400665902364e-03   3.4190964764464300e-03   4.3689122915970546e-03   8.6108388320226929e-03   8.1223518799442007e-03   1.8991398946216508e-02   1.7066396539352768e-02   3.4535864889172922e-02   3.1179584353315928e-02   5.5206894437085957e-02   5.0428007824561284e-02   8.0954803718076451e-02   7.4765396461860173e-02   1.1171769161753092e-01   1.0413322855373199e-01   1.4742158664444249e-01   1.3846087606801827e-01   1.8798063216853605e-01   1.7766577469183109e-01   2.3329729012515946e-01   2.2165362514281522e-01   2.8326258512869368e-01   2.7031862298922449e-01   3.3775636279114440e-01   3.2354371616194744e-01   3.9664758832273200e-01   3.8120088801039614e-01   4.5979466019416326e-01   4.4315147355546991e-01   5.2704576612153131e-01   5.0924649166884539e-01   5.9823923792296363e-01   5.7932701282120336e-01   6.7320396222790035e-01   6.5322454228483529e-01   7.5175978623615902e-01   7.3076143831638574e-01   8.3371797155026794e-01   8.1175133831663326e-01   9.1888164206300116e-01   8.9599962219714457e-01   1.0070462837625684e+00   9.8330388355015574e-01   1.0980002318564424e+00   1.0734544332574394e+00   1.1915252113016130e+00   1.1662348081360352e+00   1.2873968539151357e+00   1.2614223121772148e+00   1.3853852787794063e+00   1.3587885590080617e+00   1.4852556409375133e+00   1.4581000470384278e+00   1.5867687413437070e+00   1.5591187319332103e+00   1.6896815984018052e+00   1.6616026290714223e+00   1.7937480830418249e+00   1.7653064106959182e+00   1.8987195282633540e+00   1.8699820322326093e+00   2.0043453719595523e+00   1.9753793530711798e+00   2.1103737799141071e+00   2.0812467832716814e+00   2.2165523191115897e+00   2.1873319145855779e+00   2.3226285839681702e+00   2.2933821846860849e+00   2.4283508896251575e+00   2.3991455271744653e+00   2.5334689074085897e+00   2.5043710389391896e+00   2.6377343556807178e+00   2.6088096400653940e+00   2.7409016603154290e+00   2.7122147489031518e+00   2.8427286364683293e+00   2.8143429434659901e+00   2.9429771457666134e+00   2.9149546454603859e+00   3.0414137891696877e+00   3.0138147782440101e+00   3.1378105683860618e+00   3.1106934432144930e+00   3.2319455526443792e+00   3.2053665834871250e+00   3.3236035481169579e+00   3.2976166496591901e+00   3.4125767652852028e+00   3.3872332591390544e+00   3.4986654562826041e+00   3.4740138489006647e+00   3.5816785870714765e+00   3.5577643238921497e+00   3.6614344615334931e+00   3.6382996988686420e+00   3.7377613758170329e+00   3.7154447371635362e+00   3.8104982406599577e+00   3.7890345839621369e+00   3.8794952246881169e+00   3.8589153964274692e+00   3.9446143791995683e+00   3.9249449821862208e+00   4.0057303120824415e+00   3.9869934694226821e+00   4.0627308628656511e+00   4.0449440087274873e+00   4.1155178743693330e+00   4.0986935825211619e+00   4.1640080597486886e+00   4.1481539828176528e+00   4.2081340980592659e+00   4.1932531423090742e+00   4.2478461033772703e+00   4.2339371233557870e+00   4.2831138520834520e+00   4.2701734609500610e+00   4.3139307848776642e+00   4.3019573632934129e+00   4.3403233048427419e+00   4.3293242207867886e+00   4.3623789772502475e+00   4.3523759953227694e+00   4.3803491251364157e+00   4.3713357363231387e+00   4.3950538963079078e+00   4.3866405014108194e+00   4.3288977449186659e+00   4.3989376831222256e+00   4.2827817105297958e+00   4.1897406393745946e+00   4.2734817603460016e+00   4.2714623293798768e+00   4.2584594125402866e+00   4.2584594133057383e+00   4.2381155036220335e+00   4.2399080982478861e+00   4.2125879670117881e+00   4.2160114414960139e+00   4.1819389056145306e+00   4.1869032269154181e+00   4.1462323254082545e+00   4.1526919386928425e+00   4.1055508801019700e+00   4.1134785364735311e+00   4.0599975778692023e+00   4.0693689912048363e+00   4.0096934049643345e+00   4.0204806998514329e+00   3.9547744019027133e+00   3.9669443266051538e+00   3.8953892516747057e+00   3.9089033836615839e+00   3.8316975054750015e+00   3.8465130491372506e+00   3.7638683315506039e+00   3.7799389426484487e+00   3.6920796485940062e+00   3.7093560898031588e+00   3.6165174818382528e+00   3.6349481036666362e+00   3.5373754707152858e+00   3.5569065451492445e+00   3.4548544493413025e+00   3.4754303937527999e+00   3.3691620631903598e+00   3.3907255976080823e+00   3.2805123951502027e+00   3.3030046547670975e+00   3.1891255838272579e+00   3.2124862069325149e+00   3.0952274175371208e+00   3.1193946307711231e+00   2.9990489214291709e+00   3.0239596125889858e+00   2.9008259059766037e+00   2.9264157095422965e+00   2.8007985042940091e+00   2.8270018868643376e+00   2.6992106763687111e+00   2.7259610361971229e+00   2.5963097025296396e+00   2.6235394709604742e+00   2.4923456453348600e+00   2.5199864066406259e+00   2.3875708181113162e+00   2.4155534242642660e+00   2.2822392120003387e+00   2.3104939165594947e+00   2.1766059327622727e+00   2.2050625241138309e+00   2.0709266163160667e+00   2.0995145625631184e+00   1.9654568524158194e+00   1.9941054388952382e+00   1.8604515800011552e+00   1.8890900676810556e+00   1.7561645007151667e+00   1.7847222798786126e+00   1.6528474922112024e+00   1.6812542314756718e+00   1.5507500065521800e+00   1.5789358106029880e+00   1.4501184841539696e+00   1.4780140569170426e+00   1.3511957745836261e+00   1.3787325707121341e+00   1.2542205548507153e+00   1.2813309412853651e+00   1.1594267684857087e+00   1.1860441808285396e+00   1.0670430649273657e+00   1.0931021580567126e+00   9.7729225131350650e-01   1.0027290572367795e+00   8.9039076627598090e-01   9.1514284025138726e-01   8.0654815973442928e-01   8.3055472781090722e-01   7.2596658765852051e-01   7.4916869468684733e-01   6.4884033538271058e-01   6.7118097635665352e-01   5.7535534685863499e-01   5.9677961003392010e-01   5.0568878062174061e-01   5.2614397052850148e-01   4.4000858563068140e-01   4.5944435240591647e-01   3.7847309352767294e-01   3.9684155283120887e-01   3.2123064600621559e-01   3.3848649223015531e-01   2.6841923357729236e-01   2.8451984747469694e-01   2.2016616682969739e-01   2.3507171583208425e-01   1.7658776801860032e-01   1.9026130404945224e-01   1.3778909572027692e-01   1.5019663969005845e-01   1.0386368906348080e-01   1.1497431479022389e-01   7.4893345869589401e-02   8.4679251511601994e-02   5.0947924387569753e-02   5.9384499562146822e-02   3.2085177302268238e-02   3.9151061102931442e-02   1.8350612984223604e-02   2.4027744198671888e-02   9.7773865539458847e-03   1.4051046337880570e-02   6.3862208986035091e-03   9.2450670801776606e-03   8.1853577681979504e-03   9.6214510641124580e-03   1.5170538818398090e-02   1.5179360638012706e-02   2.7325016976031919e-02   2.5905478896290635e-02   4.4619597451564623e-02   4.1774042706054441e-02   6.7012709951239230e-02   6.2746905907937203e-02   9.4450509193879512e-02   8.8773632155827550e-02   1.2686700753821911e-01   1.1979161766369338e-01   1.6418423377398034e-01   1.5572624419636938e-01   2.0631242427385366e-01   1.9649105923118906e-01   2.5315023993522173e-01   2.4198798625732360e-01   3.0458501424164208e-01   2.9210756501816182e-01   3.6049302483250406e-01   3.4672921316436212e-01   4.2073979738329503e-01   4.0572152379845550e-01   4.8518042986689741e-01   4.6894258317318821e-01   5.5365994829890497e-01   5.3624031295626573e-01   6.2601368179724959e-01   6.0745284740998107e-01   7.0206766434783674e-01   6.8240891981495144e-01   7.8163906489712975e-01   7.6092828434638993e-01   8.6453662135799192e-01   8.4282215505725688e-01   9.5056112419880001e-01   9.2789366723116973e-01   1.0395058937721977e+00   1.0159383587084558e+00   1.1311572892166672e+00   1.1067446711063027e+00   1.2252952378817907e+00   1.2000944668974585e+00   1.3216937741442385e+00   1.2957635701064734e+00   1.4201215995407743e+00   1.3935223169832978e+00   1.5203426515983975e+00   1.4931361190969512e+00   1.6221166941970837e+00   1.5943660541904980e+00   1.7251999220711058e+00   1.6969694519741578e+00   1.8293455563372896e+00   1.8007005037286596e+00   1.9343044776145371e+00   1.9053108775960392e+00   2.0398258540989289e+00   2.0105503454825340e+00   2.1456577754274231e+00   2.1161674158633503e+00   2.2515478978786514e+00   2.2219099745322719e+00   2.3572440984753991e+00   2.3275259308531577e+00   2.4624951247137838e+00   2.4327638740132755e+00   2.5670512557067275e+00   2.5373737218247898e+00   2.6706649623253145e+00   2.6411073843868040e+00   2.7730915742529834e+00   2.7437194232911515e+00   2.8740899334866565e+00   2.8449677113033789e+00   2.9734230625434970e+00   2.9446140933761229e+00   3.0708588216232462e+00   3.0424250478450419e+00   3.1661705686388890e+00   3.1381723395433037e+00   3.2591377990692343e+00   3.2316336736681244e+00   3.3495468115838691e+00   3.3225933483753014e+00   3.4371913258282603e+00   3.4108428859227189e+00   3.5218731226461371e+00   3.4961816795583660e+00   3.6034026580840361e+00   3.5784176079558505e+00   3.6815996668163113e+00   3.6573676602173517e+00   3.7562937540359997e+00   3.7328585386505564e+00   3.8273249635441573e+00   3.8047272519607320e+00   3.8945443346111155e+00   3.8728217112242236e+00   3.9578144388143364e+00   3.9370013151062806e+00   4.0170099037884555e+00   3.9971375481087263e+00   4.0720179339669471e+00   4.0531146162537599e+00   4.1227388696903775e+00   4.1048301681144119e+00   4.1690868306450888e+00   4.1521961874370383e+00   4.2109906211174328e+00   4.1951402541838974e+00   4.2483952781459537e+00   4.2336075235739417e+00   4.2812652392560615e+00   4.2675641663334734e+00   4.3095917275631832e+00   4.2970036978227943e+00   4.3334112066161348e+00   4.3219588564239206e+00   4.3528520607200054e+00   4.3425229782023962e+00   4.3682462380700358e+00   4.3588824268175479e+00   4.3803491466453135e+00   4.3713357606538308e+00   4.3089765920204854e+00   4.3801319011601345e+00   4.2678363610555117e+00   4.1736324413748358e+00   4.2565616206082186e+00   4.2529501091769530e+00   4.2399081089251798e+00   4.2381155136503779e+00   4.2178691555733998e+00   4.2178691544207272e+00   4.1906311646840164e+00   4.1923046892555442e+00   4.1582909849671710e+00   4.1615502721013815e+00   4.1209383863156850e+00   4.1257218828101063e+00   4.0786727367637798e+00   4.0849353517965357e+00   4.0316062900914975e+00   4.0393118587083467e+00   3.9798644551903459e+00   3.9889802435071529e+00   3.9235851625423392e+00   3.9340783387151430e+00   3.8629179424724969e+00   3.8747536476272324e+00   3.7980229533335463e+00   3.8111634548816395e+00   3.7290700943026307e+00   3.7434745642452514e+00   3.656238