<?xml version="1.0"?>
<VTKFile type="UnstructuredGrid"  version="0.1"  >
<UnstructuredGrid>
<Piece  NumberOfPoints="16641" NumberOfCells="32768">
<Points>
<DataArray  type="Float64"  NumberOfComponents="3"  format="ascii">0 0 0  0.0078125 0 0  0.015625 0 0  0.0234375 0 0  0.03125 0 0  0.0390625 0 0  0.046875 0 0  0.0546875 0 0  0.0625 0 0  0.0703125 0 0  0.078125 0 0  0.0859375 0 0  0.09375 0 0  0.1015625 0 0  0.109375 0 0  0.1171875 0 0  0.125 0 0  0.1328125 0 0  0.140625 0 0  0.1484375 0 0  0.15625 0 0  0.1640625 0 0  0.171875 0 0  0.1796875 0 0  0.1875 0 0  0.1953125 0 0  0.203125 0 0  0.2109375 0 0  0.21875 0 0  0.2265625 0 0  0.234375 0 0  0.2421875 0 0  0.25 0 0  0.2578125 0 0  0.265625 0 0  0.2734375 0 0  0.28125 0 0  0.2890625 0 0  0.296875 0 0  0.3046875 0 0  0.3125 0 0  0.3203125 0 0  0.328125 0 0  0.3359375 0 0  0.34375 0 0  0.3515625 0 0  0.359375 0 0  0.3671875 0 0  0.375 0 0  0.3828125 0 0  0.390625 0 0  0.3984375 0 0  0.40625 0 0  0.4140625 0 0  0.421875 0 0  0.4296875 0 0  0.4375 0 0  0.4453125 0 0  0.453125 0 0  0.4609375 0 0  0.46875 0 0  0.4765625 0 0  0.484375 0 0  0.4921875 0 0  0.5 0 0  0.5078125 0 0  0.515625 0 0  0.5234375 0 0  0.53125 0 0  0.5390625 0 0  0.546875 0 0  0.5546875 0 0  0.5625 0 0  0.5703125 0 0  0.578125 0 0  0.5859375 0 0  0.59375 0 0  0.6015625 0 0  0.609375 0 0  0.6171875 0 0  0.625 0 0  0.6328125 0 0  0.640625 0 0  0.6484375 0 0  0.65625 0 0  0.6640625 0 0  0.671875 0 0  0.6796875 0 0  0.6875 0 0  0.6953125 0 0  0.703125 0 0  0.7109375 0 0  0.71875 0 0  0.7265625 0 0  0.734375 0 0  0.7421875 0 0  0.75 0 0  0.7578125 0 0  0.765625 0 0  0.7734375 0 0  0.78125 0 0  0.7890625 0 0  0.796875 0 0  0.8046875 0 0  0.8125 0 0  0.8203125 0 0  0.828125 0 0  0.8359375 0 0  0.84375 0 0  0.8515625 0 0  0.859375 0 0  0.8671875 0 0  0.875 0 0  0.8828125 0 0  0.890625 0 0  0.8984375 0 0  0.90625 0 0  0.9140625 0 0  0.921875 0 0  0.9296875 0 0  0.9375 0 0  0.9453125 0 0  0.953125 0 0  0.9609375 0 0  0.96875 0 0  0.9765625 0 0  0.984375 0 0  0.9921875 0 0  1 0 0  0 0.0078125 0  0.0078125 0.0078125 0  0.015625 0.0078125 0  0.0234375 0.0078125 0  0.03125 0.0078125 0  0.0390625 0.0078125 0  0.046875 0.0078125 0  0.0546875 0.0078125 0  0.0625 0.0078125 0  0.0703125 0.0078125 0  0.078125 0.0078125 0  0.0859375 0.0078125 0  0.09375 0.0078125 0  0.1015625 0.0078125 0  0.109375 0.0078125 0  0.1171875 0.0078125 0  0.125 0.0078125 0  0.1328125 0.0078125 0  0.140625 0.0078125 0  0.1484375 0.0078125 0  0.15625 0.0078125 0  0.1640625 0.0078125 0  0.171875 0.0078125 0  0.1796875 0.0078125 0  0.1875 0.0078125 0  0.1953125 0.0078125 0  0.203125 0.0078125 0  0.2109375 0.0078125 0  0.21875 0.0078125 0  0.2265625 0.0078125 0  0.234375 0.0078125 0  0.2421875 0.0078125 0  0.25 0.0078125 0  0.2578125 0.0078125 0  0.265625 0.0078125 0  0.2734375 0.0078125 0  0.28125 0.0078125 0  0.2890625 0.0078125 0  0.296875 0.0078125 0  0.3046875 0.0078125 0  0.3125 0.0078125 0  0.3203125 0.0078125 0  0.328125 0.0078125 0  0.3359375 0.0078125 0  0.34375 0.0078125 0  0.3515625 0.0078125 0  0.359375 0.0078125 0  0.3671875 0.0078125 0  0.375 0.0078125 0  0.3828125 0.0078125 0  0.390625 0.0078125 0  0.3984375 0.0078125 0  0.40625 0.0078125 0  0.4140625 0.0078125 0  0.421875 0.0078125 0  0.4296875 0.0078125 0  0.4375 0.0078125 0  0.4453125 0.0078125 0  0.453125 0.0078125 0  0.4609375 0.0078125 0  0.46875 0.0078125 0  0.4765625 0.0078125 0  0.484375 0.0078125 0  0.4921875 0.0078125 0  0.5 0.0078125 0  0.5078125 0.0078125 0  0.515625 0.0078125 0  0.5234375 0.0078125 0  0.53125 0.0078125 0  0.5390625 0.0078125 0  0.546875 0.0078125 0  0.5546875 0.0078125 0  0.5625 0.0078125 0  0.5703125 0.0078125 0  0.578125 0.0078125 0  0.5859375 0.0078125 0  0.59375 0.0078125 0  0.6015625 0.0078125 0  0.609375 0.0078125 0  0.6171875 0.0078125 0  0.625 0.0078125 0  0.6328125 0.0078125 0  0.640625 0.0078125 0  0.6484375 0.0078125 0  0.65625 0.0078125 0  0.6640625 0.0078125 0  0.671875 0.0078125 0  0.6796875 0.0078125 0  0.6875 0.0078125 0  0.6953125 0.0078125 0  0.703125 0.0078125 0  0.7109375 0.0078125 0  0.71875 0.0078125 0  0.7265625 0.0078125 0  0.734375 0.0078125 0  0.7421875 0.0078125 0  0.75 0.0078125 0  0.7578125 0.0078125 0  0.765625 0.0078125 0  0.7734375 0.0078125 0  0.78125 0.0078125 0  0.7890625 0.0078125 0  0.796875 0.0078125 0  0.8046875 0.0078125 0  0.8125 0.0078125 0  0.8203125 0.0078125 0  0.828125 0.0078125 0  0.8359375 0.0078125 0  0.84375 0.0078125 0  0.8515625 0.0078125 0  0.859375 0.0078125 0  0.8671875 0.0078125 0  0.875 0.0078125 0  0.8828125 0.0078125 0  0.890625 0.0078125 0  0.8984375 0.0078125 0  0.90625 0.0078125 0  0.9140625 0.0078125 0  0.921875 0.0078125 0  0.9296875 0.0078125 0  0.9375 0.0078125 0  0.9453125 0.0078125 0  0.953125 0.0078125 0  0.9609375 0.0078125 0  0.96875 0.0078125 0  0.9765625 0.0078125 0  0.984375 0.0078125 0  0.9921875 0.0078125 0  1 0.0078125 0  0 0.015625 0  0.0078125 0.015625 0  0.015625 0.015625 0  0.0234375 0.015625 0  0.03125 0.015625 0  0.0390625 0.015625 0  0.046875 0.015625 0  0.0546875 0.015625 0  0.0625 0.015625 0  0.0703125 0.015625 0  0.078125 0.015625 0  0.0859375 0.015625 0  0.09375 0.015625 0  0.1015625 0.015625 0  0.109375 0.015625 0  0.1171875 0.015625 0  0.125 0.015625 0  0.1328125 0.015625 0  0.140625 0.015625 0  0.1484375 0.015625 0  0.15625 0.015625 0  0.1640625 0.015625 0  0.171875 0.015625 0  0.1796875 0.015625 0  0.1875 0.015625 0  0.1953125 0.015625 0  0.203125 0.015625 0  0.2109375 0.015625 0  0.21875 0.015625 0  0.2265625 0.015625 0  0.234375 0.015625 0  0.2421875 0.015625 0  0.25 0.015625 0  0.2578125 0.015625 0  0.265625 0.015625 0  0.2734375 0.015625 0  0.28125 0.015625 0  0.2890625 0.015625 0  0.296875 0.015625 0  0.3046875 0.015625 0  0.3125 0.015625 0  0.3203125 0.015625 0  0.328125 0.015625 0  0.3359375 0.015625 0  0.34375 0.015625 0  0.3515625 0.015625 0  0.359375 0.015625 0  0.3671875 0.015625 0  0.375 0.015625 0  0.3828125 0.015625 0  0.390625 0.015625 0  0.3984375 0.015625 0  0.40625 0.015625 0  0.4140625 0.015625 0  0.421875 0.015625 0  0.4296875 0.015625 0  0.4375 0.015625 0  0.4453125 0.015625 0  0.453125 0.015625 0  0.4609375 0.015625 0  0.46875 0.015625 0  0.4765625 0.015625 0  0.484375 0.015625 0  0.4921875 0.015625 0  0.5 0.015625 0  0.5078125 0.015625 0  0.515625 0.015625 0  0.5234375 0.015625 0  0.53125 0.015625 0  0.5390625 0.015625 0  0.546875 0.015625 0  0.5546875 0.015625 0  0.5625 0.015625 0  0.5703125 0.015625 0  0.578125 0.015625 0  0.5859375 0.015625 0  0.59375 0.015625 0  0.6015625 0.015625 0  0.609375 0.015625 0  0.6171875 0.015625 0  0.625 0.015625 0  0.6328125 0.015625 0  0.640625 0.015625 0  0.6484375 0.015625 0  0.65625 0.015625 0  0.6640625 0.015625 0  0.671875 0.015625 0  0.6796875 0.015625 0  0.6875 0.015625 0  0.6953125 0.015625 0  0.703125 0.015625 0  0.7109375 0.015625 0  0.71875 0.015625 0  0.7265625 0.015625 0  0.734375 0.015625 0  0.7421875 0.015625 0  0.75 0.015625 0  0.7578125 0.015625 0  0.765625 0.015625 0  0.7734375 0.015625 0  0.78125 0.015625 0  0.7890625 0.015625 0  0.796875 0.015625 0  0.8046875 0.015625 0  0.8125 0.015625 0  0.8203125 0.015625 0  0.828125 0.015625 0  0.8359375 0.015625 0  0.84375 0.015625 0  0.8515625 0.015625 0  0.859375 0.015625 0  0.8671875 0.015625 0  0.875 0.015625 0  0.8828125 0.015625 0  0.890625 0.015625 0  0.8984375 0.015625 0  0.90625 0.015625 0  0.9140625 0.015625 0  0.921875 0.015625 0  0.9296875 0.015625 0  0.9375 0.015625 0  0.9453125 0.015625 0  0.953125 0.015625 0  0.9609375 0.015625 0  0.96875 0.015625 0  0.9765625 0.015625 0  0.984375 0.015625 0  0.9921875 0.015625 0  1 0.015625 0  0 0.0234375 0  0.0078125 0.0234375 0  0.015625 0.0234375 0  0.0234375 0.0234375 0  0.03125 0.0234375 0  0.0390625 0.0234375 0  0.046875 0.0234375 0  0.0546875 0.0234375 0  0.0625 0.0234375 0  0.0703125 0.0234375 0  0.078125 0.0234375 0  0.0859375 0.0234375 0  0.09375 0.0234375 0  0.1015625 0.0234375 0  0.109375 0.0234375 0  0.1171875 0.0234375 0  0.125 0.0234375 0  0.1328125 0.0234375 0  0.140625 0.0234375 0  0.1484375 0.0234375 0  0.15625 0.0234375 0  0.1640625 0.0234375 0  0.171875 0.0234375 0  0.1796875 0.0234375 0  0.1875 0.0234375 0  0.1953125 0.0234375 0  0.203125 0.0234375 0  0.2109375 0.0234375 0  0.21875 0.0234375 0  0.2265625 0.0234375 0  0.234375 0.0234375 0  0.2421875 0.0234375 0  0.25 0.0234375 0  0.2578125 0.0234375 0  0.265625 0.0234375 0  0.2734375 0.0234375 0  0.28125 0.0234375 0  0.2890625 0.0234375 0  0.296875 0.0234375 0  0.3046875 0.0234375 0  0.3125 0.0234375 0  0.3203125 0.0234375 0  0.328125 0.0234375 0  0.3359375 0.0234375 0  0.34375 0.0234375 0  0.3515625 0.0234375 0  0.359375 0.0234375 0  0.3671875 0.0234375 0  0.375 0.0234375 0  0.3828125 0.0234375 0  0.390625 0.0234375 0  0.3984375 0.0234375 0  0.40625 0.0234375 0  0.4140625 0.0234375 0  0.421875 0.0234375 0  0.4296875 0.0234375 0  0.4375 0.0234375 0  0.4453125 0.0234375 0  0.453125 0.0234375 0  0.4609375 0.0234375 0  0.46875 0.0234375 0  0.4765625 0.0234375 0  0.484375 0.0234375 0  0.4921875 0.0234375 0  0.5 0.0234375 0  0.5078125 0.0234375 0  0.515625 0.0234375 0  0.5234375 0.0234375 0  0.53125 0.0234375 0  0.5390625 0.0234375 0  0.546875 0.0234375 0  0.5546875 0.0234375 0  0.5625 0.0234375 0  0.5703125 0.0234375 0  0.578125 0.0234375 0  0.5859375 0.0234375 0  0.59375 0.0234375 0  0.6015625 0.0234375 0  0.609375 0.0234375 0  0.6171875 0.0234375 0  0.625 0.0234375 0  0.6328125 0.0234375 0  0.640625 0.0234375 0  0.6484375 0.0234375 0  0.65625 0.0234375 0  0.6640625 0.0234375 0  0.671875 0.0234375 0  0.6796875 0.0234375 0  0.6875 0.0234375 0  0.6953125 0.0234375 0  0.703125 0.0234375 0  0.7109375 0.0234375 0  0.71875 0.0234375 0  0.7265625 0.0234375 0  0.734375 0.0234375 0  0.7421875 0.0234375 0  0.75 0.0234375 0  0.7578125 0.0234375 0  0.765625 0.0234375 0  0.7734375 0.0234375 0  0.78125 0.0234375 0  0.7890625 0.0234375 0  0.796875 0.0234375 0  0.8046875 0.0234375 0  0.8125 0.0234375 0  0.8203125 0.0234375 0  0.828125 0.0234375 0  0.8359375 0.0234375 0  0.84375 0.0234375 0  0.8515625 0.0234375 0  0.859375 0.0234375 0  0.8671
[...]
<CellData  Scalars="f_132805"> 
<DataArray  type="Float64"  Name="f_132805"  format="ascii">2.8706433329239991e-11   2.8706231906442334e-11   2.8846455990162521e-11   3.6371698406186902e-11   2.8977716676252565e-11   3.6537706870149696e-11   2.9099798809935107e-11   3.6692186974794133e-11   2.9212370853890475e-11   3.6834704921703877e-11   2.9315146167239484e-11   3.6964892226690340e-11   2.9407870386866766e-11   3.7082424199565077e-11   2.9490317179234337e-11   3.7187012725002575e-11   2.9562286790877194e-11   3.7278403743483708e-11   2.9623605621135716e-11   3.7356376427270054e-11   2.9674126189596766e-11   3.7420743010662184e-11   2.9713727252270745e-11   3.7471348874133695e-11   2.9742313960848660e-11   3.7508072713753898e-11   2.9759818014989405e-11   3.7530826717015158e-11   2.9766197782679336e-11   3.7539556706794086e-11   2.9761438374881600e-11   3.7534242231932298e-11   2.9745551667572867e-11   3.7514896594467122e-11   2.9718576266166359e-11   3.7481566805494362e-11   2.9680577410466121e-11   3.7434333467441594e-11   2.9631646817887922e-11   3.7373310578689902e-11   2.9571902465389061e-11   3.7298645261757734e-11   2.9501488309041909e-11   3.7210517412834911e-11   2.9420573941982368e-11   3.7109139273903685e-11   2.9329354190920122e-11   3.6994754927546040e-11   2.9228048652062725e-11   3.6867639715182230e-11   2.9116901167871588e-11   3.6728099580993484e-11   2.8996179244897058e-11   3.6576470341382178e-11   2.8866173414728333e-11   3.6413116882627779e-11   2.8727196539396704e-11   3.6238432288581494e-11   2.8579583062613486e-11   3.6052836899914400e-11   2.8423688208895478e-11   3.5856777307502913e-11   2.8259887132468652e-11   3.5650725282587269e-11   2.8088574017599335e-11   3.5435176645283373e-11   2.7910161133288187e-11   3.5210650075658360e-11   2.7725077843763702e-11   3.4977685869020306e-11   2.7533769577434037e-11   3.4736844638253758e-11   2.7336696757318216e-11   3.4488705968005175e-11   2.7134333694727339e-11   3.4233867021881083e-11   2.6927167449533754e-11   3.3972941107766038e-11   2.6715696659057552e-11   3.3706556203064066e-11   2.6500430339250135e-11   3.3435353445010603e-11   2.6281886660527845e-11   3.3159985588863147e-11   2.6060591701354257e-11   3.2881115437791677e-11   2.5837078182279637e-11   3.2599414247934910e-11   2.5611884184318457e-11   3.2315560113513485e-11   2.5385551853950700e-11   3.2030236335018344e-11   2.5158626098165635e-11   3.1744129774410791e-11   2.4931653272829969e-11   3.1457929201972342e-11   2.4705179867226898e-11   3.1172323637838419e-11   2.4479751188501971e-11   3.0888000693550966e-11   2.4255910048481831e-11   3.0605644916078964e-11   2.4034195456651272e-11   3.0325936139691328e-11   2.3815141322055037e-11   3.0049547848575367e-11   2.3599275167718381e-11   2.9777145555404560e-11   2.3387116859853454e-11   2.9509385198076777e-11   2.3179177355936917e-11   2.9246911560090535e-11   2.2975957474098019e-11   2.8990356717751129e-11   2.2777946686688184e-11   2.8740338517563339e-11   2.2585621941295040e-11   2.8497459088031984e-11   2.2399446511914059e-11   2.8262303389350689e-11   2.2219868883003814e-11   2.8035437804411332e-11   2.2047321669138540e-11   2.7817408774405214e-11   2.1882220572931780e-11   2.7608741482733974e-11   2.1724963383367824e-11   2.7409938589446800e-11   2.1575929017670213e-11   2.7221479020599881e-11   2.1435476608428762e-11   2.7043816814493346e-11   2.1303944638297609e-11   2.6877380027748819e-11   2.1181650124387977e-11   2.6722569703935075e-11   2.1068887854297889e-11   2.6579758907063961e-11   2.0965929675837485e-11   2.6449291822885187e-11   2.0873023841605303e-11   2.6331482929045786e-11   2.0790394410567179e-11   2.6226616237130394e-11   2.0718240707645972e-11   2.6134944607694637e-11   2.0656736842853868e-11   2.6056689140382208e-11   2.0606031290920090e-11   2.5992038640120993e-11   2.0566246532601331e-11   2.5941149161171245e-11   2.0537478758329991e-11   2.5904143629613890e-11   2.0519797634977100e-11   2.5881111545462842e-11   2.0513246136204266e-11   2.5872108764861561e-11   2.0517840436903814e-11   2.5877157363095142e-11   2.0533569871816863e-11   2.5896245578536605e-11   2.0560396958339127e-11   2.5929327837486702e-11   2.0598257483581135e-11   2.5976324860055259e-11   2.0647060655424407e-11   2.6037123846826842e-11   2.0706689316875461e-11   2.6111578745237132e-11   2.0777000223517422e-11   2.6199510595691306e-11   2.0857824383081323e-11   2.6300707956010894e-11   2.0948967456242660e-11   2.6414927403129628e-11   2.1050210217846971e-11   2.6541894111040700e-11   2.1161309077098814e-11   2.6681302503462275e-11   2.1281996655247579e-11   2.6832816978584375e-11   2.1411982420046645e-11   2.6996072706074532e-11   2.1550953374222745e-11   2.7170676491970462e-11   2.1698574796882897e-11   2.7356207710728266e-11   2.1854491035742218e-11   2.7552219301206400e-11   2.2018326348353194e-11   2.7758238825071037e-11   2.2189685789329618e-11   2.7973769583047873e-11   2.2368156142013926e-11   2.8198291787681319e-11   2.2553306891537336e-11   2.8431263788519323e-11   2.2744691236909566e-11   2.8672123346859188e-11   2.2941847138900376e-11   2.8920288955999049e-11   2.3144298400826570e-11   2.9175161203542861e-11   2.3351555778948566e-11   2.9436124171391386e-11   2.3563118119161107e-11   2.9702546869880245e-11   2.3778473515538877e-11   2.9973784699998389e-11   2.3997100487247409e-11   3.0249180940015781e-11   2.4218469168647706e-11   3.0528068250057229e-11   2.4442042507433105e-11   3.0809770188519280e-11   2.4667277464707653e-11   3.1093602733309317e-11   2.4893626209507314e-11   3.1378875799315504e-11   2.5120537298647721e-11   3.1664894741743788e-11   2.5347456830472672e-11   3.1950961832806335e-11   2.5573829557110371e-11   3.2236377695329386e-11   2.5799099933892202e-11   3.2520442670587546e-11   2.6022713076127710e-11   3.2802458090151988e-11   2.6244115578028857e-11   3.3081727406707561e-11   2.6462756123882319e-11   3.3357557116257321e-11   2.6678085778469260e-11   3.3629257366382490e-11   2.6889557764397539e-11   3.3896142077629908e-11   2.7096626382980658e-11   3.4157528283321977e-11   2.7298744427694347e-11   3.4412734158885242e-11   2.7495357771249914e-11   3.4661074740484665e-11   2.7685894236472143e-11   3.4901853323163840e-11   2.7869739828580856e-11   3.5134344216998962e-11   2.8046184028050768e-11   3.5357756848221701e-11   2.8214280493293224e-11   3.5571156054416731e-11   2.8372449138164320e-11   3.5773269865380081e-11   2.1043071358625487e-11   3.5961980776892772e-11   3.6240480406801740e-11   2.8714809493048766e-11   3.6412999807002575e-11   3.6412732984538444e-11   3.6574158893021765e-11   3.6573889373723224e-11   3.6723568468530255e-11   3.6723264833265470e-11   3.6860856989736950e-11   3.6860512034299103e-11   3.6985685433657155e-11   3.6985298368773059e-11   3.7097748491424938e-11   3.7097320300235437e-11   3.7196774025071829e-11   3.7196306195110114e-11   3.7282522715050757e-11   3.7282016881805856e-11   3.7354788011764903e-11   3.7354245861253139e-11   3.7413396264516513e-11   3.7412819511774288e-11   3.7458206923168038e-11   3.7457597312184272e-11   3.7489112748072047e-11   3.7488472056700906e-11   3.7506039991552273e-11   3.7505370036155733e-11   3.7508948529649680e-11   3.7508251168440365e-11   3.7497831932414525e-11   3.7497109066958537e-11   3.7472717464592976e-11   3.7471971040059008e-11   3.7433666013481723e-11   3.7432898017532396e-11   3.7380771939923873e-11   3.7379984400902113e-11   3.7314162852902928e-11   3.7313357836988872e-11   3.7233999305801743e-11   3.7233178913903446e-11   3.7140474414583494e-11   3.7139640778527593e-11   3.7033813398619214e-11   3.7032968677131556e-11   3.6914273044497499e-11   3.6913419418892335e-11   3.6782141094538042e-11   3.6781280764085340e-11   3.6637735560079741e-11   3.6636870737361404e-11   3.6481403962473371e-11   3.6480536868560916e-11   3.6313522502489409e-11   3.6312655361975499e-11   3.6134495160591073e-11   3.6133630196688645e-11   3.5944752729940081e-11   3.5943892159473331e-11   3.5744751784696351e-11   3.5743897813062919e-11   3.5534973585449862e-11   3.5534128401740605e-11   3.5315922925542513e-11   3.5315088697479211e-11   3.5088126919912447e-11   3.5087305788996857e-11   3.4852133739837001e-11   3.4851327816635253e-11   3.4608511296641176e-11   3.4607722655803259e-11   3.4357845877879974e-11   3.4357076553726706e-11   3.4100740738478421e-11   3.4099992720228278e-11   3.3837814650741270e-11   3.3837089878208554e-11   3.3569700416941455e-11   3.3569000776156744e-11   3.3297043347593917e-11   3.3296370666550379e-11   3.3020499709789987e-11   3.3019855754532932e-11   3.2740735147602263e-11   3.2740121618201903e-11   3.2458423081644340e-11   3.2457841608555224e-11   3.2174243087799985e-11   3.2173695228155468e-11   3.1888879262189059e-11   3.1888366496530762e-11   3.1603018574312052e-11   3.1602542303220754e-11   3.1317349213338820e-11   3.1316910754496085e-11   3.1032558931566468e-11   3.1032159516762109e-11   3.0749333388346014e-11   3.0748974160948538e-11   3.0468354499142585e-11   3.0468036511532080e-11   3.0190298793480271e-11   3.0190023004841696e-11   2.9915835785921495e-11   2.9915603060084196e-11   2.9645626363364072e-11   2.9645437467054516e-11   2.9380321193764658e-11   2.9380176794932690e-11   2.9120559158691387e-11   2.9120459825014374e-11   2.8866965814736322e-11   2.8866912012463574e-11   2.8620151886788670e-11   2.8620143979791958e-11   2.8380711796826389e-11   2.8380750045772204e-11   2.8149222232253114e-11   2.8149306794069656e-11   2.7926240756768984e-11   2.7926371684340169e-11   2.7712304467312087e-11   2.7712481709331187e-11   2.7507928700032331e-11   2.7508152101247081e-11   2.7313605789081986e-11   2.7313875090563619e-11   2.7129803880468296e-11   2.7130118720217627e-11   2.6956965804217823e-11   2.6957325717976406e-11   2.6795508007533162e-11   2.6795912429858813e-11   2.6645819551157089e-11   2.6646267816673377e-11   2.6508261172160030e-11   2.6508752517013038e-11   2.6383164414276089e-11   2.6383697977930013e-11   2.6270830829023646e-11   2.6271405656165018e-11   2.6171531248361474e-11   2.6172146291086273e-11   2.6085505131758427e-11   2.6086159251955893e-11   2.6012959988280410e-11   2.6013651960325708e-11   2.5954070875558147e-11   2.5954799389069286e-11   2.5908979976824710e-11   2.5909743639821219e-11   2.5877796256630856e-11   2.5878593598788779e-11   2.5860595196505989e-11   2.5861424672722589e-11   2.5857418610824441e-11   2.5858278604966951e-11   2.5868274543421098e-11   2.5869163372307339e-11   2.5893137245016567e-11   2.5894053162675524e-11   2.5931947231695801e-11   2.5932888433814886e-11   2.5984611424236915e-11   2.5985576052859976e-11   2.6051003367290436e-11   2.6051989515830161e-11   2.6130963528718989e-11   2.6131969247087700e-11   2.6224299677854034e-11   2.6225322978017534e-11   2.6330787341281395e-11   2.6331826203002322e-11   2.6450170335866074e-11   2.6451222712774500e-11   2.6582161376925959e-11   2.6583225202826949e-11   2.6726442760171537e-11   2.6727515955938459e-11   2.6882667115771255e-11   2.6883747596171537e-11   2.7050458232441512e-11   2.7051543913797433e-11   2.7229411949464156e-11   2.7230500757483667e-11   2.7419097114493089e-11   2.7420186992781775e-11   2.7619056604339301e-11   2.7620145523167624e-11   2.7828808406185688e-11   2.7829894372285003e-11   2.8047846756498294e-11   2.8048927823279199e-11   2.8275643334268965e-11   2.8276717613009803e-11   2.8511648506025247e-11   2.8512714178080376e-11   2.8755292617891790e-11   2.8756347948025862e-11   2.9005987332501515e-11   2.9007030683694868e-11   2.9263127005961575e-11   2.9264156856019786e-11   2.9526090101135049e-11   2.9527105061244287e-11   2.9794240632402752e-11   2.9795239468626763e-11   3.0066929637641330e-11   3.0067911295476090e-11   3.0343496671870031e-11   3.0344460305170404e-11   3.0623271316854721e-11   3.0624216322191790e-11   3.0905574700198240e-11   3.0906500758192524e-11   3.1189721016489042e-11   3.1190628142406844e-11   3.1475019041716312e-11   3.1475907648476132e-11   3.1760773630192638e-11   3.1761644607995025e-11   3.2046287180860046e-11   3.2047141999712154e-11   3.2330861055355346e-11   3.2331701899732417e-11   3.2613796925135365e-11   3.2614626874123273e-11   3.2894398015086328e-11   3.2895221288858008e-11   3.3171970197455735e-11   3.3172792502303614e-11   3.3445822867592667e-11   3.3446651891272567e-11   3.3715269495674944e-11   3.3716115638501006e-11   3.3979627688338069e-11   3.3980505175582070e-11   3.4238218490177714e-11   3.4239147121622054e-11   3.4490364483033959e-11   3.4491372483862730e-11   3.4735385965765037e-11   3.4736514800667185e-11   3.4972594147191266e-11   3.4973906904729011e-11   3.5201280301978239e-11   3.5202876496144009e-11   3.5420702837194471e-11   3.5422743565969621e-11   3.5630093290063787e-11   3.5632835402729792e-11   3.5828800249738331e-11   3.5832588661910678e-11   2.8503574709445631e-11   3.6022035431986377e-11   3.6255963123397332e-11   2.8695567187984560e-11   3.6423507235079687e-11   3.6423194362734930e-11   3.6579467241009218e-11   3.6579159862629952e-11   3.6723509906290124e-11   3.6723187674748669e-11   3.6855300802880699e-11   3.6854954404018435e-11   3.6974525767720748e-11   3.6974151604741782e-11   3.7080898474357454e-11   3.7080495591743986e-11   3.7174163147945587e-11   3.7173731803095408e-11   3.7254095683841036e-11   3.7253636716031325e-11   3.7320504242488288e-11   3.7320018792405407e-11   3.7373229657044746e-11   3.7372719038243696e-11   3.7412145751875228e-11   3.7411611389094809e-11   3.7437159594300348e-11   3.7436602992125466e-11   3.7448211682647155e-11   3.7447634408317794e-11   3.7445276066313820e-11   3.7444679739446213e-11   3.7428360394957265e-11   3.7427746680399298e-11   3.7397505893291067e-11   3.7396876495716980e-11   3.7352787259828086e-11   3.7352143919032268e-11   3.7294312487984180e-11   3.7293656974626835e-11   3.7222222609916201e-11   3.7221556721165715e-11   3.7136691361172068e-11   3.7136016916635938e-11   3.7037924768487094e-11   3.7037243605926840e-11   3.6926160659760254e-11   3.6925474630906357e-11   3.6801668098001798e-11   3.6800979064243190e-11   3.6664746740303577e-11   3.6664056568365797e-11   3.6515726122837589e-11   3.6515036680485466e-11   3.6354964873737147e-11   3.6354278025465980e-11   3.6182849856189638e-11   3.6182167458837469e-11   3.5999795242652615e-11   3.5999119141194942e-11   3.5806241523444530e-11   3.5805573546704773e-11   3.5602654451460734e-11   3.5601996407891110e-11   3.5389523925718124e-11   3.5388877599354578e-11   3.5167362816493932e-11   3.5166729962729451e-11   3.4936705734727756e-11   3.4936088076458063e-11   3.4698107748177303e-11   3.4697506971927980e-11   3.4452143049665789e-11   3.4451560801651599e-11   3.4199403576554374e-11   3.4198841459179815e-11   3.3940497588961221e-11   3.3939957157079222e-11   3.3676048207472782e-11   3.3675530965104409e-11   3.3406691915225187e-11   3.3406199312165685e-11   3.3133077027389409e-11   3.3132610455955499e-11   3.2855862131202160e-11   3.2855422923368519e-11   3.2575714502467360e-11   3.2575303926817324e-11   3.2293308499210888e-11   3.2292927758317480e-11   3.2009323939611678e-11   3.2008974167302678e-11   3.1724444465217713e-11   3.1724126724338066e-11   3.1439355895694580e-11   3.1439071175680693e-11   3.1154744577739577e-11   3.1154493792637827e-11   3.0871295732799974e-11   3.0871079719226287e-11   3.0589691807054575e-11   3.0589511322563193e-11   3.0310610828355913e-11   3.0310466549788658e-11   3.0034724773140301e-11   3.0034617295241868e-11   2.9762697948623052e-11   2.9762627782763819e-11   2.9495185392597006e-11   2.9495152965813609e-11   2.9232831295797317e-11   2.9232836949905530e-11   2.8976267450657972e-11   2.8976311441521985e-11   2.8726111729209843e-11   2.8726194226268711e-11   2.8482966595068040e-11   2.8483087681099705e-11   2.8247417652116057e-11   2.8247577323005919e-11   2.8020032233966010e-11   2.8020230398806541e-11   2.7801358037274480e-11   2.7801594518613483e-11   2.7591921802504971e-11   2.7592196336747159e-11   2.7392228044872250e-11   2.7392540282976595e-11   2.7202757839002690e-11   2.7203107347181811e-11   2.7023967659941446e-11   2.7024353920662012e-11   2.6856288283457691e-11   2.6856710696627109e-11   2.6700123747953876e-11   2.6700581632304943e-11   2.6555850380966366e-11   2.6556342975539021e-11   2.6423815892392139e-11   2.6424342358240566e-11   2.6304338536324024e-11   2.6304897958473536e-11   2.6197706343712645e-11   2.6198297733180496e-11   2.6104176428074968e-11   2.6104798724174344e-11   2.6023974365160899e-11   2.6024626437903984e-11   2.5957293648462472e-11   2.5957974301264915e-11   2.5904295222024020e-11   2.5905003194388667e-11   2.5865107091141697e-11   2.5865841061786844e-11   2.5839824012371672e-11   2.5840582602328948e-11   2.5828507263132470e-11   2.5829289039154784e-11   2.5831184491813027e-11   2.5831987969928017e-11   2.5847849648233993e-11   2.5848673297488534e-11   2.5878462995048607e-11   2.5879305241487064e-11   2.5922951199866979e-11   2.5923810430683375e-11   2.5981207507343780e-11   2.5982082075211039e-11   2.6053091991734803e-11   2.6053980219518855e-11   2.6138431888282479e-11   2.6139332073738462e-11   2.6237022002955359e-11   2.6237932423908657e-11   2.6348625199773407e-11   2.6349544119412420e-11   2.6472972963855969e-11   2.6473898636344764e-11   2.6609766039291250e-11   2.6610696715649040e-11   2.6758675139345690e-11   2.6759609073847118e-11   2.6919341729092136e-11   2.6920277185666835e-11   2.7091378875367054e-11   2.7092314134762406e-11   2.7274372165173448e-11   2.7275305532363212e-11   2.7467880687407104e-11   2.7468810499617734e-11   2.7671438077761158e-11   2.7672362712865460e-11   2.7884553621620708e-11   2.7885471507580031e-11   2.8106713414058451e-11   2.8107623038773889e-11   2.8337381573093175e-11   2.8338281495340210e-11   2.8576001502382120e-11   2.8576890363826433e-11   2.8821997201003816e-11   2.8822873739450782e-11   2.9074774615727530e-11   2.9075637679956816e-11   2.9333723032413332e-11   2.9334571598937900e-11   2.9598216502511567e-11   2.9599049694495201e-11   2.9867615299697367e-11   2.9868432409063698e-11   3.0141267402727008e-11   3.0142067915550576e-11   3.0418509998962990e-11   3.0419293625598522e-11   3.0698671003333929e-11   3.0699437714378121e-11   3.0981070586373437e-11   3.0981820656081653e-11   3.1265022704789633e-11   3.1265756764372916e-11   3.1549836626443794e-11   3.1550555730425362e-11   3.1834818440704115e-11   3.1835524150611777e-11   3.2119272542836787e-11   3.2119967034558839e-11   3.2402503078908755e-11   3.2403189282632195e-11   3.2683815333745136e-11   3.2684497119183021e-11   3.2962517039816676e-11   3.2963199465908937e-11   3.3237919577508553e-11   3.3238609234864297e-11   3.3509339028824552e-11   3.3510044517997937e-11   3.3776097035402601e-11   3.3776829646787065e-11   3.4037521402339380e-11   3.4038296098964714e-11   3.4292946393402705e-11   3.4293783249786164e-11   3.4541712719663997e-11   3.4542639038185238e-11   3.4783167447434247e-11   3.4784220826613956e-11   3.5016664788346433e-11   3.5017897312066966e-11   3.5241570970275731e-11   3.5243053886148713e-11   3.5457282833886754e-11   3.5459107827782872e-11   3.5663287099243476e-11   3.5665549390061542e-11   3.5859326489528955e-11   3.5862044629088534e-11   2.8496091673304346e-11   3.6048652909244721e-11   3.6241227364583331e-11   2.8648496017993024e-11   3.6403416425472807e-11   3.6403096054691452e-11   3.6553898570451209e-11   3.6553580114337594e-11   3.6692343643005980e-11   3.6692017784093685e-11   3.6818435239234692e-11   3.6818095673077835e-11   3.6931878235932720e-11   3.6931521571317029e-11   3.7032403939674602e-11   3.7032028712774136e-11   3.7119772951323020e-11   3.7119378843197155e-11   3.7193776739240630e-11   3.7193364095956227e-11   3.7254238564956485e-11   3.7253808125758752e-11   3.7301014081389338e-11   3.7300566827671447e-11   3.7333991747239305e-11   3.7333528817612637e-11   3.7353093120266285e-11   3.7352615761237253e-11   3.7358273054921044e-11   3.7357782591042539e-11   3.734951