<?xml version="1.0"?>
<VTKFile type="UnstructuredGrid"  version="0.1"  >
<UnstructuredGrid>
<Piece  NumberOfPoints="16641" NumberOfCells="32768">
<Points>
<DataArray  type="Float64"  NumberOfComponents="3"  format="ascii">0 0 0  0.0078125 0 0  0.015625 0 0  0.0234375 0 0  0.03125 0 0  0.0390625 0 0  0.046875 0 0  0.0546875 0 0  0.0625 0 0  0.0703125 0 0  0.078125 0 0  0.0859375 0 0  0.09375 0 0  0.1015625 0 0  0.109375 0 0  0.1171875 0 0  0.125 0 0  0.1328125 0 0  0.140625 0 0  0.1484375 0 0  0.15625 0 0  0.1640625 0 0  0.171875 0 0  0.1796875 0 0  0.1875 0 0  0.1953125 0 0  0.203125 0 0  0.2109375 0 0  0.21875 0 0  0.2265625 0 0  0.234375 0 0  0.2421875 0 0  0.25 0 0  0.2578125 0 0  0.265625 0 0  0.2734375 0 0  0.28125 0 0  0.2890625 0 0  0.296875 0 0  0.3046875 0 0  0.3125 0 0  0.3203125 0 0  0.328125 0 0  0.3359375 0 0  0.34375 0 0  0.3515625 0 0  0.359375 0 0  0.3671875 0 0  0.375 0 0  0.3828125 0 0  0.390625 0 0  0.3984375 0 0  0.40625 0 0  0.4140625 0 0  0.421875 0 0  0.4296875 0 0  0.4375 0 0  0.4453125 0 0  0.453125 0 0  0.4609375 0 0  0.46875 0 0  0.4765625 0 0  0.484375 0 0  0.4921875 0 0  0.5 0 0  0.5078125 0 0  0.515625 0 0  0.5234375 0 0  0.53125 0 0  0.5390625 0 0  0.546875 0 0  0.5546875 0 0  0.5625 0 0  0.5703125 0 0  0.578125 0 0  0.5859375 0 0  0.59375 0 0  0.6015625 0 0  0.609375 0 0  0.6171875 0 0  0.625 0 0  0.6328125 0 0  0.640625 0 0  0.6484375 0 0  0.65625 0 0  0.6640625 0 0  0.671875 0 0  0.6796875 0 0  0.6875 0 0  0.6953125 0 0  0.703125 0 0  0.7109375 0 0  0.71875 0 0  0.7265625 0 0  0.734375 0 0  0.7421875 0 0  0.75 0 0  0.7578125 0 0  0.765625 0 0  0.7734375 0 0  0.78125 0 0  0.7890625 0 0  0.796875 0 0  0.8046875 0 0  0.8125 0 0  0.8203125 0 0  0.828125 0 0  0.8359375 0 0  0.84375 0 0  0.8515625 0 0  0.859375 0 0  0.8671875 0 0  0.875 0 0  0.8828125 0 0  0.890625 0 0  0.8984375 0 0  0.90625 0 0  0.9140625 0 0  0.921875 0 0  0.9296875 0 0  0.9375 0 0  0.9453125 0 0  0.953125 0 0  0.9609375 0 0  0.96875 0 0  0.9765625 0 0  0.984375 0 0  0.9921875 0 0  1 0 0  0 0.0078125 0  0.0078125 0.0078125 0  0.015625 0.0078125 0  0.0234375 0.0078125 0  0.03125 0.0078125 0  0.0390625 0.0078125 0  0.046875 0.0078125 0  0.0546875 0.0078125 0  0.0625 0.0078125 0  0.0703125 0.0078125 0  0.078125 0.0078125 0  0.0859375 0.0078125 0  0.09375 0.0078125 0  0.1015625 0.0078125 0  0.109375 0.0078125 0  0.1171875 0.0078125 0  0.125 0.0078125 0  0.1328125 0.0078125 0  0.140625 0.0078125 0  0.1484375 0.0078125 0  0.15625 0.0078125 0  0.1640625 0.0078125 0  0.171875 0.0078125 0  0.1796875 0.0078125 0  0.1875 0.0078125 0  0.1953125 0.0078125 0  0.203125 0.0078125 0  0.2109375 0.0078125 0  0.21875 0.0078125 0  0.2265625 0.0078125 0  0.234375 0.0078125 0  0.2421875 0.0078125 0  0.25 0.0078125 0  0.2578125 0.0078125 0  0.265625 0.0078125 0  0.2734375 0.0078125 0  0.28125 0.0078125 0  0.2890625 0.0078125 0  0.296875 0.0078125 0  0.3046875 0.0078125 0  0.3125 0.0078125 0  0.3203125 0.0078125 0  0.328125 0.0078125 0  0.3359375 0.0078125 0  0.34375 0.0078125 0  0.3515625 0.0078125 0  0.359375 0.0078125 0  0.3671875 0.0078125 0  0.375 0.0078125 0  0.3828125 0.0078125 0  0.390625 0.0078125 0  0.3984375 0.0078125 0  0.40625 0.0078125 0  0.4140625 0.0078125 0  0.421875 0.0078125 0  0.4296875 0.0078125 0  0.4375 0.0078125 0  0.4453125 0.0078125 0  0.453125 0.0078125 0  0.4609375 0.0078125 0  0.46875 0.0078125 0  0.4765625 0.0078125 0  0.484375 0.0078125 0  0.4921875 0.0078125 0  0.5 0.0078125 0  0.5078125 0.0078125 0  0.515625 0.0078125 0  0.5234375 0.0078125 0  0.53125 0.0078125 0  0.5390625 0.0078125 0  0.546875 0.0078125 0  0.5546875 0.0078125 0  0.5625 0.0078125 0  0.5703125 0.0078125 0  0.578125 0.0078125 0  0.5859375 0.0078125 0  0.59375 0.0078125 0  0.6015625 0.0078125 0  0.609375 0.0078125 0  0.6171875 0.0078125 0  0.625 0.0078125 0  0.6328125 0.0078125 0  0.640625 0.0078125 0  0.6484375 0.0078125 0  0.65625 0.0078125 0  0.6640625 0.0078125 0  0.671875 0.0078125 0  0.6796875 0.0078125 0  0.6875 0.0078125 0  0.6953125 0.0078125 0  0.703125 0.0078125 0  0.7109375 0.0078125 0  0.71875 0.0078125 0  0.7265625 0.0078125 0  0.734375 0.0078125 0  0.7421875 0.0078125 0  0.75 0.0078125 0  0.7578125 0.0078125 0  0.765625 0.0078125 0  0.7734375 0.0078125 0  0.78125 0.0078125 0  0.7890625 0.0078125 0  0.796875 0.0078125 0  0.8046875 0.0078125 0  0.8125 0.0078125 0  0.8203125 0.0078125 0  0.828125 0.0078125 0  0.8359375 0.0078125 0  0.84375 0.0078125 0  0.8515625 0.0078125 0  0.859375 0.0078125 0  0.8671875 0.0078125 0  0.875 0.0078125 0  0.8828125 0.0078125 0  0.890625 0.0078125 0  0.8984375 0.0078125 0  0.90625 0.0078125 0  0.9140625 0.0078125 0  0.921875 0.0078125 0  0.9296875 0.0078125 0  0.9375 0.0078125 0  0.9453125 0.0078125 0  0.953125 0.0078125 0  0.9609375 0.0078125 0  0.96875 0.0078125 0  0.9765625 0.0078125 0  0.984375 0.0078125 0  0.9921875 0.0078125 0  1 0.0078125 0  0 0.015625 0  0.0078125 0.015625 0  0.015625 0.015625 0  0.0234375 0.015625 0  0.03125 0.015625 0  0.0390625 0.015625 0  0.046875 0.015625 0  0.0546875 0.015625 0  0.0625 0.015625 0  0.0703125 0.015625 0  0.078125 0.015625 0  0.0859375 0.015625 0  0.09375 0.015625 0  0.1015625 0.015625 0  0.109375 0.015625 0  0.1171875 0.015625 0  0.125 0.015625 0  0.1328125 0.015625 0  0.140625 0.015625 0  0.1484375 0.015625 0  0.15625 0.015625 0  0.1640625 0.015625 0  0.171875 0.015625 0  0.1796875 0.015625 0  0.1875 0.015625 0  0.1953125 0.015625 0  0.203125 0.015625 0  0.2109375 0.015625 0  0.21875 0.015625 0  0.2265625 0.015625 0  0.234375 0.015625 0  0.2421875 0.015625 0  0.25 0.015625 0  0.2578125 0.015625 0  0.265625 0.015625 0  0.2734375 0.015625 0  0.28125 0.015625 0  0.2890625 0.015625 0  0.296875 0.015625 0  0.3046875 0.015625 0  0.3125 0.015625 0  0.3203125 0.015625 0  0.328125 0.015625 0  0.3359375 0.015625 0  0.34375 0.015625 0  0.3515625 0.015625 0  0.359375 0.015625 0  0.3671875 0.015625 0  0.375 0.015625 0  0.3828125 0.015625 0  0.390625 0.015625 0  0.3984375 0.015625 0  0.40625 0.015625 0  0.4140625 0.015625 0  0.421875 0.015625 0  0.4296875 0.015625 0  0.4375 0.015625 0  0.4453125 0.015625 0  0.453125 0.015625 0  0.4609375 0.015625 0  0.46875 0.015625 0  0.4765625 0.015625 0  0.484375 0.015625 0  0.4921875 0.015625 0  0.5 0.015625 0  0.5078125 0.015625 0  0.515625 0.015625 0  0.5234375 0.015625 0  0.53125 0.015625 0  0.5390625 0.015625 0  0.546875 0.015625 0  0.5546875 0.015625 0  0.5625 0.015625 0  0.5703125 0.015625 0  0.578125 0.015625 0  0.5859375 0.015625 0  0.59375 0.015625 0  0.6015625 0.015625 0  0.609375 0.015625 0  0.6171875 0.015625 0  0.625 0.015625 0  0.6328125 0.015625 0  0.640625 0.015625 0  0.6484375 0.015625 0  0.65625 0.015625 0  0.6640625 0.015625 0  0.671875 0.015625 0  0.6796875 0.015625 0  0.6875 0.015625 0  0.6953125 0.015625 0  0.703125 0.015625 0  0.7109375 0.015625 0  0.71875 0.015625 0  0.7265625 0.015625 0  0.734375 0.015625 0  0.7421875 0.015625 0  0.75 0.015625 0  0.7578125 0.015625 0  0.765625 0.015625 0  0.7734375 0.015625 0  0.78125 0.015625 0  0.7890625 0.015625 0  0.796875 0.015625 0  0.8046875 0.015625 0  0.8125 0.015625 0  0.8203125 0.015625 0  0.828125 0.015625 0  0.8359375 0.015625 0  0.84375 0.015625 0  0.8515625 0.015625 0  0.859375 0.015625 0  0.8671875 0.015625 0  0.875 0.015625 0  0.8828125 0.015625 0  0.890625 0.015625 0  0.8984375 0.015625 0  0.90625 0.015625 0  0.9140625 0.015625 0  0.921875 0.015625 0  0.9296875 0.015625 0  0.9375 0.015625 0  0.9453125 0.015625 0  0.953125 0.015625 0  0.9609375 0.015625 0  0.96875 0.015625 0  0.9765625 0.015625 0  0.984375 0.015625 0  0.9921875 0.015625 0  1 0.015625 0  0 0.0234375 0  0.0078125 0.0234375 0  0.015625 0.0234375 0  0.0234375 0.0234375 0  0.03125 0.0234375 0  0.0390625 0.0234375 0  0.046875 0.0234375 0  0.0546875 0.0234375 0  0.0625 0.0234375 0  0.0703125 0.0234375 0  0.078125 0.0234375 0  0.0859375 0.0234375 0  0.09375 0.0234375 0  0.1015625 0.0234375 0  0.109375 0.0234375 0  0.1171875 0.0234375 0  0.125 0.0234375 0  0.1328125 0.0234375 0  0.140625 0.0234375 0  0.1484375 0.0234375 0  0.15625 0.0234375 0  0.1640625 0.0234375 0  0.171875 0.0234375 0  0.1796875 0.0234375 0  0.1875 0.0234375 0  0.1953125 0.0234375 0  0.203125 0.0234375 0  0.2109375 0.0234375 0  0.21875 0.0234375 0  0.2265625 0.0234375 0  0.234375 0.0234375 0  0.2421875 0.0234375 0  0.25 0.0234375 0  0.2578125 0.0234375 0  0.265625 0.0234375 0  0.2734375 0.0234375 0  0.28125 0.0234375 0  0.2890625 0.0234375 0  0.296875 0.0234375 0  0.3046875 0.0234375 0  0.3125 0.0234375 0  0.3203125 0.0234375 0  0.328125 0.0234375 0  0.3359375 0.0234375 0  0.34375 0.0234375 0  0.3515625 0.0234375 0  0.359375 0.0234375 0  0.3671875 0.0234375 0  0.375 0.0234375 0  0.3828125 0.0234375 0  0.390625 0.0234375 0  0.3984375 0.0234375 0  0.40625 0.0234375 0  0.4140625 0.0234375 0  0.421875 0.0234375 0  0.4296875 0.0234375 0  0.4375 0.0234375 0  0.4453125 0.0234375 0  0.453125 0.0234375 0  0.4609375 0.0234375 0  0.46875 0.0234375 0  0.4765625 0.0234375 0  0.484375 0.0234375 0  0.4921875 0.0234375 0  0.5 0.0234375 0  0.5078125 0.0234375 0  0.515625 0.0234375 0  0.5234375 0.0234375 0  0.53125 0.0234375 0  0.5390625 0.0234375 0  0.546875 0.0234375 0  0.5546875 0.0234375 0  0.5625 0.0234375 0  0.5703125 0.0234375 0  0.578125 0.0234375 0  0.5859375 0.0234375 0  0.59375 0.0234375 0  0.6015625 0.0234375 0  0.609375 0.0234375 0  0.6171875 0.0234375 0  0.625 0.0234375 0  0.6328125 0.0234375 0  0.640625 0.0234375 0  0.6484375 0.0234375 0  0.65625 0.0234375 0  0.6640625 0.0234375 0  0.671875 0.0234375 0  0.6796875 0.0234375 0  0.6875 0.0234375 0  0.6953125 0.0234375 0  0.703125 0.0234375 0  0.7109375 0.0234375 0  0.71875 0.0234375 0  0.7265625 0.0234375 0  0.734375 0.0234375 0  0.7421875 0.0234375 0  0.75 0.0234375 0  0.7578125 0.0234375 0  0.765625 0.0234375 0  0.7734375 0.0234375 0  0.78125 0.0234375 0  0.7890625 0.0234375 0  0.796875 0.0234375 0  0.8046875 0.0234375 0  0.8125 0.0234375 0  0.8203125 0.0234375 0  0.828125 0.0234375 0  0.8359375 0.0234375 0  0.84375 0.0234375 0  0.8515625 0.0234375 0  0.859375 0.0234375 0  0.8671
[...]
<CellData  Scalars="f_132808"> 
<DataArray  type="Float64"  Name="f_132808"  format="ascii">1.2251823567169250e-05   4.7238037551106104e-06   2.1539073196877587e-05   7.8117433600192410e-06   3.6996030736258634e-05   1.7104763678313415e-05   5.8580879015703770e-05   3.2572644722991919e-05   8.6238580598813273e-05   5.4173624771429353e-05   1.1990032326025819e-04   8.1852665882900944e-05   1.5948338139620748e-04   1.1554092487936165e-04   2.0489115492206529e-04   1.5515562438527469e-04   2.5601330591683763e-04   2.0060009586862898e-04   3.1272596137553417e-04   2.5176391832868741e-04   3.7489196736199392e-04   3.0852312221026957e-04   4.4236118672219191e-04   3.7074044432034819e-04   5.1497083562656372e-04   4.3826562611664683e-04   5.9254585575743539e-04   5.1093575073544442e-04   6.7489931974503217e-04   5.8857561562430732e-04   7.6183286793872333e-04   6.7099813840855330e-04   8.5313717478028347e-04   7.5800479409383816e-04   9.4859244322671667e-04   8.4938608187796604e-04   1.0479689256842504e-03   9.4492202002587728e-04   1.1510274699472751e-03   1.0443826672704908e-03   1.2575200887580877e-03   1.1475286692338349e-03   1.3671905513089600e-03   1.2541118284875622e-03   1.4797749953047530e-03   1.3638756965705086e-03   1.5950025579435834e-03   1.4765561865837935e-03   1.7125960242744106e-03   1.5918822047184379e-03   1.8322724912984288e-03   1.7095762991750584e-03   1.9537440461536316e-03   1.8293553248396215e-03   2.0767184567330550e-03   1.9509311220552389e-03   2.2008998730229093e-03   2.0740112078374501e-03   2.3259895374349933e-03   2.1982994778195547e-03   2.4516865025038348e-03   2.3234969172000945e-03   2.5776883539697071e-03   2.4493023190609161e-03   2.7036919377031207e-03   2.5754130080782108e-03   2.8293940885988811e-03   2.7015255680759792e-03   2.9544923596671962e-03   2.8273365715537485e-03   3.0786857495822698e-03   2.9525433094109901e-03   3.2016754268899585e-03   3.0768445191273362e-03   3.3231654491192113e-03   3.1999411096022513e-03   3.4428634751579152e-03   3.3215368808908285e-03   3.5604814689255441e-03   3.4413392372024364e-03   3.6757363928290425e-03   3.5590598911874383e-03   3.7883508892806524e-03   3.6744155579983800e-03   3.8980539486390964e-03   3.7871286374051554e-03   4.0045815618934442e-03   3.8969278823209439e-03   4.1076773565991804e-03   4.0035490520577647e-03   4.2070932142693317e-03   4.1067355488241791e-03   4.3025898682590765e-03   4.2062390356562172e-03   4.3939374801270541e-03   4.3018200348311809e-03   4.4809161932955373e-03   4.3932485047372613e-03   4.5633166627273474e-03   4.4803043940240556e-03   4.6409405595687738e-03   4.5627781717473273e-03   4.7136010487155086e-03   4.6404713324629384e-03   4.7811232392761631e-03   4.7131968742161580e-03   4.8433446056721455e-03   4.7807797494089652e-03   4.9001153795323639e-03   4.8430572862768421e-03   4.9512989105319326e-03   4.8998795811355618e-03   4.9967719954538336e-03   4.9511098595479653e-03   5.0364251751099974e-03   4.9966248056826645e-03   5.0701629982757264e-03   5.0363148595074054e-03   5.0979042514860797e-03   5.0700844809667099e-03   5.1195821544866528e-03   5.0978523799920664e-03   5.1351445212549215e-03   5.1195517121383248e-03   5.1445538857136488e-03   5.1351302397562460e-03   5.1477875916862807e-03   5.1445504578353360e-03   5.1448378474902466e-03   5.1477896840503700e-03   5.1357117444564846e-03   5.1448401134149150e-03   5.1204312397370479e-03   5.1357088368390877e-03   5.0990331031071888e-03   5.1204178239307617e-03   5.0715688281329262e-03   5.0990038697737248e-03   5.0381045079169219e-03   5.0715185060313606e-03   4.9987206755555394e-03   5.0380278765979128e-03   4.9535121098487336e-03   4.9986125779378863e-03   4.9025876065806155e-03   4.9533674646392179e-03   4.8460697162282899e-03   4.9024014205123071e-03   4.7840944481901898e-03   4.8458370960857361e-03   4.7168109428716775e-03   4.7838106125935127e-03   4.6443811122825942e-03   4.7164712337900887e-03   4.5669792492883518e-03   4.6439810062510771e-03   4.4847916077319656e-03   4.5665143682979527e-03   4.3980159533001653e-03   4.4842577297707006e-03   4.3068610869761333e-03   4.3974090225158370e-03   4.2115463417469719e-03   4.3061772234388989e-03   4.1123010542517616e-03   4.2107818507862863e-03   4.0093640121305505e-03   4.1114524353470169e-03   3.9029828788862820e-03   4.0084279673320141e-03   3.7934135973368638e-03   3.9019563207474584e-03   3.6809197735338177e-03   3.7922936563380269e-03   3.5657720419379154e-03   3.6797038049799528e-03   3.4482474139217742e-03   3.5644576323114424e-03   3.3286286115137829e-03   3.4468323866804064e-03   3.2072033869726731e-03   3.3271110323121350e-03   3.0842638308512418e-03   3.2055815683007787e-03   2.9601056698193825e-03   3.0825363360763892e-03   2.8350275557733370e-03   2.9582713166198282e-03   2.7093303484915471e-03   2.8330854189588862e-03   2.5833163930855559e-03   2.7072797622014516e-03   2.4572887943855931e-03   2.5811569523585954e-03   2.3315506897899751e-03   2.4550203560989980e-03   2.2064045225322934e-03   2.3291733729641079e-03   2.0821513170261267e-03   2.2039187079992565e-03   1.9590899582937731e-03   2.0795576464651190e-03   1.8375164769860713e-03   1.9563893326307717e-03   1.7177233420261006e-03   1.8347100541657726e-03   1.5999987624272336e-03   1.7148125341559771e-03   1.4846260002201576e-03   1.5969852323027053e-03   1.3718826961380164e-03   1.4815116572367332e-03   1.2620402098157569e-03   1.3686696915979489e-03   1.1553629761553350e-03   1.2587309316386128e-03   1.0521078796082112e-03   1.1519600430015267e-03   9.5252364807169119e-04   1.0486141344266703e-03   8.5685026806743016e-04   9.4894215108099129e-04   7.6531842278243923e-04   8.5318428917879039e-04   6.7814895485061226e-04   7.6157143347421350e-04   5.9555235554660437e-04   6.7432461949822422e-04   5.1772828230869147e-04   5.9165452220895842e-04   4.4486510656157057e-04   5.1376097296157073e-04   3.7713949424223830e-04   4.4083250675777420e-04   3.1471602177778675e-04   3.7304594215237610e-04   2.5774683107571502e-04   3.1056599652657329e-04   2.0637132847583115e-04   2.5354494021688305e-04   1.6071593490345646e-04   2.0212229431287797e-04   1.2089389892846455e-04   1.5642457909648963e-04   8.7005193206070999e-05   1.1656512425824992e-04   5.9136534017490023e-05   8.2643960059113400e-05   3.7361611020613226e-05   5.4747825867536016e-05   2.1741748831101952e-05   3.2950374072339491e-05   1.2327666488062387e-05   1.7312763225883677e-05   9.1646895464551986e-06   7.8852143402522119e-06   7.7976798299081408e-06   6.4988616531623672e-06   1.7073430296684735e-05   9.5710985073978568e-06   3.2516609474946069e-05   1.8838046411577474e-05   5.4086180515262701e-05   3.4271619241727947e-05   8.1727316576128863e-05   5.5830282171173999e-05   1.1537128101968875e-04   8.3458964601381395e-05   1.5493538789072963e-04   1.1708880632191495e-04   2.0032306624125236e-04   1.5663706080292961e-04   2.5142400445846797e-04   2.0200713301729120e-04   3.0811435580530006e-04   2.5308871047551631e-04   3.7025699377204020e-04   3.0975796159824696e-04   4.3770181036002960e-04   3.7187778693980401e-04   5.1028605293744239e-04   4.3929811494916273e-04   5.8783469656529489e-04   5.1185623719107699e-04   6.7016084952920387e-04   5.8937717955816248e-04   7.5706619011071063e-04   6.7167410699927113e-04   8.4834143295825016e-04   7.5854875968301414e-04   9.4376682345847607e-04   8.4979191888360801e-04   1.0431126586192378e-03   9.4518390094736808e-04   1.1461398329965149e-03   1.0444950778233846e-03   1.2526004080818185e-03   1.1474864226732786e-03   1.3622382037818544e-03   1.2539100789638804e-03   1.4747894103708929e-03   1.3635099516677582e-03   1.5899832193402921e-03   1.4760223189437692e-03   1.7075424716968841e-03   1.5911764627260156e-03   1.8271843219063966e-03   1.7086953167590214e-03   1.9486209159699031e-03   1.8282961302835831e-03   2.0715600819088053e-03   1.9496911458554314e-03   2.1957060309928268e-03   2.0725882895732202e-03   2.3207600679621301e-03   2.1966918720484020e-03   2.4464213085253284e-03   2.3217032983717635e-03   2.5723874023136730e-03   2.4473217853499961e-03   2.6983552597555503e-03   2.5732450842065983e-03   2.8240217807363596e-03   2.6991702071950583e-03   2.9490845835219129e-03   2.8247941560029838e-03   3.0732427322452860e-03   2.9498146504223655e-03   3.1961974609734513e-03   3.0739308555805599e-03   3.3176528926211709e-03   3.1968441057539021e-03   3.4373167511514116e-03   3.3182586230355820e-03   3.5549010650520138e-03   3.4378822292856627e-03   3.6701228609261043e-03   3.5554270493705275e-03   3.7827048445722607e-03   3.6706102045076421e-03   3.8923760689495708e-03   3.7831544931186236e-03   3.9988725865279795e-03   3.8927890585604323e-03   4.1019380852736313e-03   3.9992500412582323e-03   4.2013245059113859e-03   4.1022812144678386e-03   4.2967926394730880e-03   4.2016346013326721e-03   4.3881127036344142e-03   4.2970710722283912e-03   4.4750648964600841e-03   4.3883609209046052e-03   4.5574399256818514e-03   4.4752844180401541e-03   4.6350395131725371e-03   4.5576323403490196e-03   4.7076768727074211e-03   4.6352064748798752e-03   4.7751771599306835e-03   4.7078200966202688e-03   4.8373778938320209e-03   4.7752984183123863e-03   4.8941293480521354e-03   4.8374790117884309e-03   4.9452949117252364e-03   4.8942121991504793e-03   4.9907514187332623e-03   4.9453614134908914e-03   5.0303894445533522e-03   4.9908035280412169e-03   5.0641135695464251e-03   5.0304291529227208e-03   5.0918426091113916e-03   5.0641428983515032e-03   5.1135098091538321e-03   5.0918636047188352e-03   5.1290630070232558e-03   5.1135245380007320e-03   5.1384647567349739e-03   5.1290735506456520e-03   5.1416924193901465e-03   5.1384732067608430e-03   5.1387382175694203e-03   5.1417008725082192e-03   5.1296092536706325e-03   5.1387487704866808e-03   5.1143274928331251e-03   5.1296239980708454e-03   5.0929297096569438e-03   5.1143485103490099e-03   5.0654673995400908e-03   5.0929590668680131e-03   5.0320066541909162e-03   5.0655071430091032e-03   4.9926280021560200e-03   5.0320588055508013e-03   4.9474262145887812e-03   4.9926945532593036e-03   4.8965100765041352e-03   4.9475091227327208e-03   4.8400021244346062e-03   4.8966112597414249e-03   4.7780383509157262e-03   4.8401234569837000e-03   4.7107678764912357e-03   4.7781816586807075e-03   4.6383525900892328e-03   4.7109349327016416e-03   4.5609667588532403e-03   4.6385451110738177e-03   4.4787966078527275e-03   4.5611863999554768e-03   4.3920398713048906e-03   4.4790449594993608e-03   4.3009053160081891e-03   4.3923184552370200e-03   4.2056122380279013e-03   4.3012155816879493e-03   4.1063899345315114e-03   4.2059555592217652e-03   4.0034771512154370e-03   4.1067676060892047e-03   3.8971215073198167e-03   4.0038903860446116e-03   3.7875788991565619e-03   3.8975714335706311e-03   3.6751128839238403e-03   3.7880665576169544e-03   3.5599940451745741e-03   3.6756392256402995e-03   3.4424993416318907e-03   3.5605599293001022e-03   3.3229114406323713e-03   3.4431055335047119e-03   3.2015180381034158e-03   3.3235586100995524e-03   3.0786111667090144e-03   3.2022067580857608e-03   2.9544864936768035e-03   3.0793419120159447e-03   2.8294426102970179e-03   2.9552596400761466e-03   2.7037803143817487e-03   2.8302584338436372e-03   2.5778018881435077e-03   2.7046389910025366e-03   2.4518103725072651e-03   2.5787034934907464e-03   2.3261088402056914e-03   2.4527548820760868e-03   2.2009996692180398e-03   2.3270961297202145e-03   2.0767838181656789e-03   2.2020295152946228e-03   1.9537601059160742e-03   2.0778558992422306e-03   1.8322244967793704e-03   1.9548740034630229e-03   1.7124693931898274e-03   1.8333796967895748e-03   1.5947829377793404e-03   1.7136652879511391e-03   1.4794483263972156e-03   1.5960188279369545e-03   1.3667431338736083e-03   1.4807234233125428e-03   1.2569386543894647e-03   1.3680565622843867e-03   1.1502992579693130e-03   1.2582894553909696e-03   1.0470817648723213e-03   1.1516863923312810e-03   9.4753483961063599e-04   1.0485041167134868e-03   8.5189840616560150e-04   9.4899122046939583e-04   7.6040308617229054e-04   8.5338755951750399e-04   6.7326966177529124e-04   7.6192369245913546e-04   5.9070856485143278e-04   6.7482034405079666e-04   5.1291939453361349e-04   5.9228789518447379e-04   4.4009046506111714e-04   5.1452590138507677e-04   3.7239838622087350e-04   4.4172264195366056e-04   3.1000767914086735e-04   3.7405470219359252e-04   2.5307043103000470e-04   3.1168659175679822e-04   2.0172599354596440e-04   2.5477040319190361e-04   1.5610073195058573e-04   2.0344551620668700e-04   1.1630783602195521e-04   1.5783835636687469e-04   8.2447211342919489e-05   1.1806222214249169e-04   5.4605483535077731e-05   8.4217204772794706e-05   3.2856172859559584e-05   5.6390245292151818e-05   1.7260124546231361e-05   3.4655409568400028e-05   7.8661972378430817e-06   1.9074508035684661e-05   4.7111997913815821e-06   9.6980989121039587e-06   9.5579746709159200e-06   1.4463778900682847e-05   1.8799766934939222e-05   1.7509516809642110e-05   3.4194017082691244e-05   2.6725069934521945e-05   5.5699958048540745e-05   4.2084268919095351e-05   8.3262853808489936e-05   6.3546401883386071e-05   1.1681404666153558e-04   9.1056756091183346e-05   1.5627096986826932e-04   1.2454670903212678e-04   2.0153722182162629e-04   1.6393375986777168e-04   2.5250270858613621e-04   2.0912160767206183e-04   3.0904384559958515e-04   2.6000029263144992e-04   3.7102380952199035e-04   3.1644639504170341e-04   4.3829283367020412e-04   3.7832328445660710e-04   5.1068854257360586e-04   4.4548141279919344e-04   5.8803632239503288e-04   5.1775864695540223e-04   6.7014972474547542e-04   5.9498063754056607e-04   7.5683090190497215e-04   6.7696122127483235e-04   8.4787107169577046e-04   7.6350285491746624e-04   9.4305101040098940e-04   8.5439707895117341e-04   1.0421415721608152e-03   9.4942500937219871e-04   1.1449042334311973e-03   1.0483578560049845e-03   1.2510916608870521e-03   1.1509574658889194e-03   1.3604483013436224e-03   1.2569768901222363e-03   1.4727109921202656e-03   1.3661609727259013e-03   1.5876095903616871e-03   1.4782469599400627e-03   1.7048676196132007e-03   1.5929651284765835e-03   1.8242029321377620e-03   1.7100394310029579e-03   1.9453283853027256e-03   1.8291881573688743e-03   2.0679525303145384e-03   1.9501246098827341e-03   2.1917803116935550e-03   2.0725577909328015e-03   2.3165137757719602e-03   2.1961931013361516e-03   2.4418527862552991e-03   2.3207330476991569e-03   2.5674957455758957e-03   2.4458779568430622e-03   2.6931403197429753e-03   2.5713266960180536e-03   2.8184841652946773e-03   2.6967773966004756e-03   2.9432256564888505e-03   2.8219281799089883e-03   3.0670646107321528e-03   2.9464778832521909e-03   3.1897030109504180e-03   3.0701267842274541e-03   3.3108457228091261e-03   3.1925773219615983e-03   3.4302012049471685e-03   3.3135348132194336e-03   3.5474822108593146e-03   3.4327081615295437e-03   3.6624064804115508e-03   3.5498105579951653e-03   3.7746974196872138e-03   3.6645601717273904e-03   3.8840847667722354e-03   3.7766808286535144e-03   3.9903052429077169e-03   3.8859026762768103e-03   4.0931031865107034e-03   3.9919628338397680e-03   4.1922311690441080e-03   4.0946060253605953e-03   4.2874505910810946e-03   4.1935851945819344e-03   4.3785322570743879e-03   4.2886621001197410e-03   4.4652569275075516e-03   4.3796078893657275e-03   4.5474158473603503e-03   4.4662036498024568e-03   4.6248112487734033e-03   4.5482409366810125e-03   4.6972568278390563e-03   4.6255222749234113e-03   4.7645781932855119e-03   4.6978616352080747e-03   4.8266132869485617e-03   4.7650848819865144e-03   4.8832127739771598e-03   4.8270301933323505e-03   4.9342404028987095e-03   4.8835484505783001e-03   4.9795733339204531e-03   4.9345035978532060e-03   5.0191024346966390e-03   4.9797729699111015e-03   5.0527325434332948e-03   5.0192475874753818e-03   5.0803826980714891e-03   5.0528324199741832e-03   5.1019863315094477e-03   5.0804466144048783e-03   5.1174914316134204e-03   5.1020236902946077e-03   5.1268606666334945e-03   5.1175116995006518e-03   5.1300714749630844e-03   5.1268733514747899e-03   5.1271161193395722e-03   5.1300861029238117e-03   5.1180017055945789e-03   5.1271422119679539e-03   5.1027501648644048e-03   5.1180487569055435e-03   5.0813982009435509e-03   5.1028276184926702e-03   5.0539972014811627e-03   5.0815154274217100e-03   5.0206131138951920e-03   5.0541634756996034e-03   4.9813262862061850e-03   5.0208375927973765e-03   4.9362312732184150e-03   4.9816179867731630e-03   4.8854366084279616e-03   4.9365990507999171e-03   4.8290645421614469e-03   4.8858891354676580e-03   4.7672507466937596e-03   4.8296102873760429e-03   4.7001439892679891e-03   4.7678979547465458e-03   4.6279057731060287e-03   4.7009006609966828e-03   4.5507099482632717e-03   4.6287796463492115e-03   4.4687422923638939e-03   4.5517084793311796e-03   4.3822000628505574e-03   4.4698726382025504e-03   4.2912915214796295e-03   4.3834690639397685e-03   4.1962354326518609e-03   4.2927056855129953e-03   4.0972605360277553e-03   4.1978009190275761e-03   3.9946049955894864e-03   4.0989831412076997e-03   3.8885158258257155e-03   3.9964901393428551e-03   3.7792482970533565e-03   3.8905685384046035e-03   3.6670653205154251e-03   3.7814732073267851e-03   3.5522368154656740e-03   3.6694666451041981e-03   3.4350390596388949e-03   3.5548183488826892e-03   3.3157540242247964e-03   3.4378041654789353e-03   3.1946686957162627e-03   3.3187056274297361e-03   3.0720743855970861e-03   3.1978092759179545e-03   2.9482660300130690e-03   3.0754059715731728e-03   2.8235414809409777e-03   2.9517901952686343e-03   2.6982007906407404e-03   2.8272593404273581e-03   2.5725454911168398e-03   2.7021129986168168e-03   2.4468778704203691e-03   2.5766522401791721e-03   2.3215002474282370e-03   2.4511788916965682e-03   2.1967142471452910e-03   2.3259948119351919e-03   2.0728200781058937e-03   2.2014011683400064e-03   1.9501158135641970e-03   2.0776977155974705e-03   1.8288966786407543e-03   1.9551820780170800e-03   1.7094543447691898e-03   1.8341490378604047e-03   1.5920762335769761e-03   1.7148898309629153e-03   1.4770448316521010e-03   1.5976914518096284e-03   1.3646370181308678e-03   1.4828359694924460e-03   1.2551234067134621e-03   1.3705998564915930e-03   1.1487677039110267e-03   1.2612533319162837e-03   1.0458260851433968e-03   1.1550597209900400e-03   9.4654659038314085e-04   1.0522748324225571e-03   8.5116854105201723e-04   9.5314635539569734e-04   7.5992197984846483e-04   8.5791327788874660e-04   6.7302713524807596e-04   7.6680532804313808e-04   5.9069391240555626e-04   6.8004244041477025e-04   5.1312141240231538e-04   5.9783424887686410e-04   4.4049748189239608e-04   5.2037960828568285e-04   3.7299829547307134e-04   4.4786614714031040e-04   3.1078797365329192e-04   3.8046985386928542e-04   2.5401823992614769e-04   3.1835470008340853e-04   2.0282812183646762e-04   2.6167230504758529e-04   1.5734370271227997e-04   2.1056164742954702e-04   1.1767793397252015e-04   1.6514883287039505e-04   8.3930522212166323e-05   1.2554693009673816e-04   5.6187909860641632e-05   9.1855893616664045e-05   3.4523364448922316e-05   6.4162595024350213e-05   1.8997144424038980e-05   4.2540972877628856e-05   9.6564956281022907e-06   2.7052227298235051e-05   6.5345193842704583e-06   1.7744652186978503e-05   1.7505688980131908e-05   2.8583620639533226e-05   2.6695666950632279e-05   3.1592402183233797e-05   4.2008347598590782e-05   4.0732142375931454e-05   6.3403766809685480e-05   5.5978071358092068e-05   9.0827644287773756e-05   7.7290484472966641e-05   1.2421165835359768e-04   1.0461534996023417e-04   1.6347357755821688e-04   1.3788458392031830e-04   2.0851738464097786e-04   1.7701620331984485e-04   2.5923343680359583e-04   2.2191446570441780e-04   3.1549867203517072e-04   2.7247003770424503e-04   3.7717686058237978e-04   3.2856020467966253e-04   4.4411889834504242e-04   3.9004912289113694e-04   5.1616313878539120e-04   4.5678811229203219e-04   5.9313576063193445e-04   5.2861598722789207e-04   6.748511