<?xml version="1.0"?>
<VTKFile type="UnstructuredGrid"  version="0.1"  >
<UnstructuredGrid>
<Piece  NumberOfPoints="16641" NumberOfCells="32768">
<Points>
<DataArray  type="Float64"  NumberOfComponents="3"  format="ascii">0 0 0  0.0078125 0 0  0.015625 0 0  0.0234375 0 0  0.03125 0 0  0.0390625 0 0  0.046875 0 0  0.0546875 0 0  0.0625 0 0  0.0703125 0 0  0.078125 0 0  0.0859375 0 0  0.09375 0 0  0.1015625 0 0  0.109375 0 0  0.1171875 0 0  0.125 0 0  0.1328125 0 0  0.140625 0 0  0.1484375 0 0  0.15625 0 0  0.1640625 0 0  0.171875 0 0  0.1796875 0 0  0.1875 0 0  0.1953125 0 0  0.203125 0 0  0.2109375 0 0  0.21875 0 0  0.2265625 0 0  0.234375 0 0  0.2421875 0 0  0.25 0 0  0.2578125 0 0  0.265625 0 0  0.2734375 0 0  0.28125 0 0  0.2890625 0 0  0.296875 0 0  0.3046875 0 0  0.3125 0 0  0.3203125 0 0  0.328125 0 0  0.3359375 0 0  0.34375 0 0  0.3515625 0 0  0.359375 0 0  0.3671875 0 0  0.375 0 0  0.3828125 0 0  0.390625 0 0  0.3984375 0 0  0.40625 0 0  0.4140625 0 0  0.421875 0 0  0.4296875 0 0  0.4375 0 0  0.4453125 0 0  0.453125 0 0  0.4609375 0 0  0.46875 0 0  0.4765625 0 0  0.484375 0 0  0.4921875 0 0  0.5 0 0  0.5078125 0 0  0.515625 0 0  0.5234375 0 0  0.53125 0 0  0.5390625 0 0  0.546875 0 0  0.5546875 0 0  0.5625 0 0  0.5703125 0 0  0.578125 0 0  0.5859375 0 0  0.59375 0 0  0.6015625 0 0  0.609375 0 0  0.6171875 0 0  0.625 0 0  0.6328125 0 0  0.640625 0 0  0.6484375 0 0  0.65625 0 0  0.6640625 0 0  0.671875 0 0  0.6796875 0 0  0.6875 0 0  0.6953125 0 0  0.703125 0 0  0.7109375 0 0  0.71875 0 0  0.7265625 0 0  0.734375 0 0  0.7421875 0 0  0.75 0 0  0.7578125 0 0  0.765625 0 0  0.7734375 0 0  0.78125 0 0  0.7890625 0 0  0.796875 0 0  0.8046875 0 0  0.8125 0 0  0.8203125 0 0  0.828125 0 0  0.8359375 0 0  0.84375 0 0  0.8515625 0 0  0.859375 0 0  0.8671875 0 0  0.875 0 0  0.8828125 0 0  0.890625 0 0  0.8984375 0 0  0.90625 0 0  0.9140625 0 0  0.921875 0 0  0.9296875 0 0  0.9375 0 0  0.9453125 0 0  0.953125 0 0  0.9609375 0 0  0.96875 0 0  0.9765625 0 0  0.984375 0 0  0.9921875 0 0  1 0 0  0 0.0078125 0  0.0078125 0.0078125 0  0.015625 0.0078125 0  0.0234375 0.0078125 0  0.03125 0.0078125 0  0.0390625 0.0078125 0  0.046875 0.0078125 0  0.0546875 0.0078125 0  0.0625 0.0078125 0  0.0703125 0.0078125 0  0.078125 0.0078125 0  0.0859375 0.0078125 0  0.09375 0.0078125 0  0.1015625 0.0078125 0  0.109375 0.0078125 0  0.1171875 0.0078125 0  0.125 0.0078125 0  0.1328125 0.0078125 0  0.140625 0.0078125 0  0.1484375 0.0078125 0  0.15625 0.0078125 0  0.1640625 0.0078125 0  0.171875 0.0078125 0  0.1796875 0.0078125 0  0.1875 0.0078125 0  0.1953125 0.0078125 0  0.203125 0.0078125 0  0.2109375 0.0078125 0  0.21875 0.0078125 0  0.2265625 0.0078125 0  0.234375 0.0078125 0  0.2421875 0.0078125 0  0.25 0.0078125 0  0.2578125 0.0078125 0  0.265625 0.0078125 0  0.2734375 0.0078125 0  0.28125 0.0078125 0  0.2890625 0.0078125 0  0.296875 0.0078125 0  0.3046875 0.0078125 0  0.3125 0.0078125 0  0.3203125 0.0078125 0  0.328125 0.0078125 0  0.3359375 0.0078125 0  0.34375 0.0078125 0  0.3515625 0.0078125 0  0.359375 0.0078125 0  0.3671875 0.0078125 0  0.375 0.0078125 0  0.3828125 0.0078125 0  0.390625 0.0078125 0  0.3984375 0.0078125 0  0.40625 0.0078125 0  0.4140625 0.0078125 0  0.421875 0.0078125 0  0.4296875 0.0078125 0  0.4375 0.0078125 0  0.4453125 0.0078125 0  0.453125 0.0078125 0  0.4609375 0.0078125 0  0.46875 0.0078125 0  0.4765625 0.0078125 0  0.484375 0.0078125 0  0.4921875 0.0078125 0  0.5 0.0078125 0  0.5078125 0.0078125 0  0.515625 0.0078125 0  0.5234375 0.0078125 0  0.53125 0.0078125 0  0.5390625 0.0078125 0  0.546875 0.0078125 0  0.5546875 0.0078125 0  0.5625 0.0078125 0  0.5703125 0.0078125 0  0.578125 0.0078125 0  0.5859375 0.0078125 0  0.59375 0.0078125 0  0.6015625 0.0078125 0  0.609375 0.0078125 0  0.6171875 0.0078125 0  0.625 0.0078125 0  0.6328125 0.0078125 0  0.640625 0.0078125 0  0.6484375 0.0078125 0  0.65625 0.0078125 0  0.6640625 0.0078125 0  0.671875 0.0078125 0  0.6796875 0.0078125 0  0.6875 0.0078125 0  0.6953125 0.0078125 0  0.703125 0.0078125 0  0.7109375 0.0078125 0  0.71875 0.0078125 0  0.7265625 0.0078125 0  0.734375 0.0078125 0  0.7421875 0.0078125 0  0.75 0.0078125 0  0.7578125 0.0078125 0  0.765625 0.0078125 0  0.7734375 0.0078125 0  0.78125 0.0078125 0  0.7890625 0.0078125 0  0.796875 0.0078125 0  0.8046875 0.0078125 0  0.8125 0.0078125 0  0.8203125 0.0078125 0  0.828125 0.0078125 0  0.8359375 0.0078125 0  0.84375 0.0078125 0  0.8515625 0.0078125 0  0.859375 0.0078125 0  0.8671875 0.0078125 0  0.875 0.0078125 0  0.8828125 0.0078125 0  0.890625 0.0078125 0  0.8984375 0.0078125 0  0.90625 0.0078125 0  0.9140625 0.0078125 0  0.921875 0.0078125 0  0.9296875 0.0078125 0  0.9375 0.0078125 0  0.9453125 0.0078125 0  0.953125 0.0078125 0  0.9609375 0.0078125 0  0.96875 0.0078125 0  0.9765625 0.0078125 0  0.984375 0.0078125 0  0.9921875 0.0078125 0  1 0.0078125 0  0 0.015625 0  0.0078125 0.015625 0  0.015625 0.015625 0  0.0234375 0.015625 0  0.03125 0.015625 0  0.0390625 0.015625 0  0.046875 0.015625 0  0.0546875 0.015625 0  0.0625 0.015625 0  0.0703125 0.015625 0  0.078125 0.015625 0  0.0859375 0.015625 0  0.09375 0.015625 0  0.1015625 0.015625 0  0.109375 0.015625 0  0.1171875 0.015625 0  0.125 0.015625 0  0.1328125 0.015625 0  0.140625 0.015625 0  0.1484375 0.015625 0  0.15625 0.015625 0  0.1640625 0.015625 0  0.171875 0.015625 0  0.1796875 0.015625 0  0.1875 0.015625 0  0.1953125 0.015625 0  0.203125 0.015625 0  0.2109375 0.015625 0  0.21875 0.015625 0  0.2265625 0.015625 0  0.234375 0.015625 0  0.2421875 0.015625 0  0.25 0.015625 0  0.2578125 0.015625 0  0.265625 0.015625 0  0.2734375 0.015625 0  0.28125 0.015625 0  0.2890625 0.015625 0  0.296875 0.015625 0  0.3046875 0.015625 0  0.3125 0.015625 0  0.3203125 0.015625 0  0.328125 0.015625 0  0.3359375 0.015625 0  0.34375 0.015625 0  0.3515625 0.015625 0  0.359375 0.015625 0  0.3671875 0.015625 0  0.375 0.015625 0  0.3828125 0.015625 0  0.390625 0.015625 0  0.3984375 0.015625 0  0.40625 0.015625 0  0.4140625 0.015625 0  0.421875 0.015625 0  0.4296875 0.015625 0  0.4375 0.015625 0  0.4453125 0.015625 0  0.453125 0.015625 0  0.4609375 0.015625 0  0.46875 0.015625 0  0.4765625 0.015625 0  0.484375 0.015625 0  0.4921875 0.015625 0  0.5 0.015625 0  0.5078125 0.015625 0  0.515625 0.015625 0  0.5234375 0.015625 0  0.53125 0.015625 0  0.5390625 0.015625 0  0.546875 0.015625 0  0.5546875 0.015625 0  0.5625 0.015625 0  0.5703125 0.015625 0  0.578125 0.015625 0  0.5859375 0.015625 0  0.59375 0.015625 0  0.6015625 0.015625 0  0.609375 0.015625 0  0.6171875 0.015625 0  0.625 0.015625 0  0.6328125 0.015625 0  0.640625 0.015625 0  0.6484375 0.015625 0  0.65625 0.015625 0  0.6640625 0.015625 0  0.671875 0.015625 0  0.6796875 0.015625 0  0.6875 0.015625 0  0.6953125 0.015625 0  0.703125 0.015625 0  0.7109375 0.015625 0  0.71875 0.015625 0  0.7265625 0.015625 0  0.734375 0.015625 0  0.7421875 0.015625 0  0.75 0.015625 0  0.7578125 0.015625 0  0.765625 0.015625 0  0.7734375 0.015625 0  0.78125 0.015625 0  0.7890625 0.015625 0  0.796875 0.015625 0  0.8046875 0.015625 0  0.8125 0.015625 0  0.8203125 0.015625 0  0.828125 0.015625 0  0.8359375 0.015625 0  0.84375 0.015625 0  0.8515625 0.015625 0  0.859375 0.015625 0  0.8671875 0.015625 0  0.875 0.015625 0  0.8828125 0.015625 0  0.890625 0.015625 0  0.8984375 0.015625 0  0.90625 0.015625 0  0.9140625 0.015625 0  0.921875 0.015625 0  0.9296875 0.015625 0  0.9375 0.015625 0  0.9453125 0.015625 0  0.953125 0.015625 0  0.9609375 0.015625 0  0.96875 0.015625 0  0.9765625 0.015625 0  0.984375 0.015625 0  0.9921875 0.015625 0  1 0.015625 0  0 0.0234375 0  0.0078125 0.0234375 0  0.015625 0.0234375 0  0.0234375 0.0234375 0  0.03125 0.0234375 0  0.0390625 0.0234375 0  0.046875 0.0234375 0  0.0546875 0.0234375 0  0.0625 0.0234375 0  0.0703125 0.0234375 0  0.078125 0.0234375 0  0.0859375 0.0234375 0  0.09375 0.0234375 0  0.1015625 0.0234375 0  0.109375 0.0234375 0  0.1171875 0.0234375 0  0.125 0.0234375 0  0.1328125 0.0234375 0  0.140625 0.0234375 0  0.1484375 0.0234375 0  0.15625 0.0234375 0  0.1640625 0.0234375 0  0.171875 0.0234375 0  0.1796875 0.0234375 0  0.1875 0.0234375 0  0.1953125 0.0234375 0  0.203125 0.0234375 0  0.2109375 0.0234375 0  0.21875 0.0234375 0  0.2265625 0.0234375 0  0.234375 0.0234375 0  0.2421875 0.0234375 0  0.25 0.0234375 0  0.2578125 0.0234375 0  0.265625 0.0234375 0  0.2734375 0.0234375 0  0.28125 0.0234375 0  0.2890625 0.0234375 0  0.296875 0.0234375 0  0.3046875 0.0234375 0  0.3125 0.0234375 0  0.3203125 0.0234375 0  0.328125 0.0234375 0  0.3359375 0.0234375 0  0.34375 0.0234375 0  0.3515625 0.0234375 0  0.359375 0.0234375 0  0.3671875 0.0234375 0  0.375 0.0234375 0  0.3828125 0.0234375 0  0.390625 0.0234375 0  0.3984375 0.0234375 0  0.40625 0.0234375 0  0.4140625 0.0234375 0  0.421875 0.0234375 0  0.4296875 0.0234375 0  0.4375 0.0234375 0  0.4453125 0.0234375 0  0.453125 0.0234375 0  0.4609375 0.0234375 0  0.46875 0.0234375 0  0.4765625 0.0234375 0  0.484375 0.0234375 0  0.4921875 0.0234375 0  0.5 0.0234375 0  0.5078125 0.0234375 0  0.515625 0.0234375 0  0.5234375 0.0234375 0  0.53125 0.0234375 0  0.5390625 0.0234375 0  0.546875 0.0234375 0  0.5546875 0.0234375 0  0.5625 0.0234375 0  0.5703125 0.0234375 0  0.578125 0.0234375 0  0.5859375 0.0234375 0  0.59375 0.0234375 0  0.6015625 0.0234375 0  0.609375 0.0234375 0  0.6171875 0.0234375 0  0.625 0.0234375 0  0.6328125 0.0234375 0  0.640625 0.0234375 0  0.6484375 0.0234375 0  0.65625 0.0234375 0  0.6640625 0.0234375 0  0.671875 0.0234375 0  0.6796875 0.0234375 0  0.6875 0.0234375 0  0.6953125 0.0234375 0  0.703125 0.0234375 0  0.7109375 0.0234375 0  0.71875 0.0234375 0  0.7265625 0.0234375 0  0.734375 0.0234375 0  0.7421875 0.0234375 0  0.75 0.0234375 0  0.7578125 0.0234375 0  0.765625 0.0234375 0  0.7734375 0.0234375 0  0.78125 0.0234375 0  0.7890625 0.0234375 0  0.796875 0.0234375 0  0.8046875 0.0234375 0  0.8125 0.0234375 0  0.8203125 0.0234375 0  0.828125 0.0234375 0  0.8359375 0.0234375 0  0.84375 0.0234375 0  0.8515625 0.0234375 0  0.859375 0.0234375 0  0.8671
[...]
<PointData  Scalars="f_162459-1"> 
<DataArray  type="Float64"  Name="f_162459-1"  format="ascii">-0.0000000000000000e+00  -1.9274437650860398e-04  -3.8537265101197565e-04  -5.7776879144038923e-04  -7.6981690555300583e-04  -9.6140131074702530e-04  -1.1524066037405614e-03  -1.3427177300872626e-03  -1.5322200534808087e-03  -1.7207994248075364e-03  -1.9083422509055948e-03  -2.0947355629892207e-03  -2.2798670846969093e-03  -2.4636252997224987e-03  -2.6458995189884175e-03  -2.8265799473206534e-03  -3.0055577495852561e-03  -3.1827251162465505e-03  -3.3579753283075760e-03  -3.5312028215936137e-03  -3.7023032503401025e-03  -3.8711735500466210e-03  -4.0377119995590937e-03  -4.2018182823428084e-03  -4.3633935469093452e-03  -4.5223404663610189e-03  -4.6785632970169572e-03  -4.8319679360855220e-03  -4.9824619783483083e-03  -5.1299547718215901e-03  -5.2743574723616909e-03  -5.4155830971813696e-03  -5.5535465772450021e-03  -5.6881648085109838e-03  -5.8193567019905008e-03  -5.9470432325924999e-03  -6.0711474867254566e-03  -6.1915947086272358e-03  -6.3083123453951751e-03  -6.4212300906892417e-03  -6.5302799270819346e-03  -6.6353961670294476e-03  -6.7365154924393864e-03  -6.8335769928112170e-03  -6.9265222019264808e-03  -7.0152951330666527e-03  -7.0998423127374448e-03  -7.1801128128792481e-03  -7.2560582815442828e-03  -7.3276329720220112e-03  -7.3947937703952383e-03  -7.4575002215103280e-03  -7.5157145533458749e-03  -7.5694016997651537e-03  -7.6185293216386538e-03  -7.6630678263239597e-03  -7.7029903854912499e-03  -7.7382729512836821e-03  -7.7688942708029245e-03  -7.7948358989111018e-03  -7.8160822093414645e-03  -7.8326204041110573e-03  -7.8444405212297567e-03  -7.8515354407009894e-03  -7.8539008888105638e-03  -7.8515354407009894e-03  -7.8444405212297567e-03  -7.8326204041110573e-03  -7.8160822093414663e-03  -7.7948358989111018e-03  -7.7688942708029245e-03  -7.7382729512836821e-03  -7.7029903854912499e-03  -7.6630678263239597e-03  -7.6185293216386538e-03  -7.5694016997651537e-03  -7.5157145533458749e-03  -7.4575002215103280e-03  -7.3947937703952383e-03  -7.3276329720220112e-03  -7.2560582815442828e-03  -7.1801128128792481e-03  -7.0998423127374456e-03  -7.0152951330666518e-03  -6.9265222019264817e-03  -6.8335769928112178e-03  -6.7365154924393864e-03  -6.6353961670294493e-03  -6.5302799270819363e-03  -6.4212300906892417e-03  -6.3083123453951759e-03  -6.1915947086272367e-03  -6.0711474867254575e-03  -5.9470432325925016e-03  -5.8193567019904999e-03  -5.6881648085109838e-03  -5.5535465772450030e-03  -5.4155830971813713e-03  -5.2743574723616926e-03  -5.1299547718215892e-03  -4.9824619783483083e-03  -4.8319679360855228e-03  -4.6785632970169581e-03  -4.5223404663610198e-03  -4.3633935469093452e-03  -4.2018182823428084e-03  -4.0377119995590946e-03  -3.8711735500466219e-03  -3.7023032503401042e-03  -3.5312028215936163e-03  -3.3579753283075756e-03  -3.1827251162465510e-03  -3.0055577495852570e-03  -2.8265799473206552e-03  -2.6458995189884197e-03  -2.4636252997224978e-03  -2.2798670846969097e-03  -2.0947355629892216e-03  -1.9083422509055964e-03  -1.7207994248075384e-03  -1.5322200534808115e-03  -1.3427177300872626e-03  -1.1524066037405618e-03  -9.6140131074702649e-04  -7.6981690555300757e-04  -5.7776879144039162e-04  -3.8537265101197527e-04  -1.9274437650860428e-04  -9.6182545843024085e-19  -0.0000000000000000e+00  1.2558608586117325e-02  2.5109499629260415e-02  3.7645167991036906e-02  5.0158082400378293e-02  6.2640713024686892e-02  7.5085543823773429e-02  8.7485079877405586e-02  9.9831852986401903e-02  1.1211842662324376e-01  1.2433740060642251e-01  1.3648141563946475e-01  1.4854315777160351e-01  1.6051536280552806e-01  1.7239082066213776e-01  1.8416237970671687e-01  1.9582295103749592e-01  2.0736551273517084e-01  2.1878311407322379e-01  2.3006887968587522e-01  2.4121601369201198e-01  2.5221780377208231e-01  2.6306762519649990e-01  2.7375894480252405e-01  2.8428532491721692e-01  2.9464042722338973e-01  3.0481801656790958e-01  3.1481196470831030e-01  3.2461625399595956e-01  3.3422498099358172e-01  3.4363236002462599e-01  3.5283272665268778e-01  3.6182054108846762e-01  3.7059039152226908e-01  3.7913699738032464e-01  3.8745521250154252e-01  3.9554002823485679e-01  4.0338657645371873e-01  4.1099013248622829e-01  4.1834611795973276e-01  4.2545010355680069e-01  4.3229781168188580e-01  4.3888511903757138e-01  4.4520805910684380e-01  4.5126282454238886e-01  4.5704576945934217e-01  4.6255341163077035e-01  4.6778243458555235e-01  4.7272968960556955e-01  4.7739219762246082e-01  4.8176715101186091e-01  4.8585191528478244e-01  4.8964403067498169e-01  4.9314121361989638e-01  4.9634135813645497e-01  4.9924253708997035e-01  5.0184300335505572e-01  5.0414119086725340e-01  5.0613571556720771e-01  5.0782537623359036e-01  5.0920915520713539e-01  5.1028621900293192e-01  5.1105591881289081e-01  5.1151779089572735e-01  5.1167155685697630e-01  5.1151712381526837e-01  5.1105458445859919e-01  5.1028421698842052e-01  5.0920648495217802e-01  5.0782203696279049e-01  5.0613170630914883e-01  5.0413651045255170e-01  5.0183765041555672e-01  4.9923651005743874e-01  4.9633465524143766e-01  4.9313383289213875e-01  4.8963596994414244e-01  4.8584317218129008e-01  4.8175772297093056e-01  4.7738208188953601e-01  4.7271888324343747e-01  4.6777093448474694e-01  4.6254121452298541e-01  4.5703287193501441e-01  4.5124922307287280e-01  4.4519375007129219e-01  4.3887009875678573e-01  4.3228207645842909e-01  4.2543364972350783e-01  4.1832894193710207e-01  4.1097223085009571e-01  4.0336794601504450e-01  3.9552066613251546e-01  3.8743511630987226e-01  3.7911616523336872e-01  3.7056882225774107e-01  3.6179823441215470e-01  3.5280968332816309e-01  3.4360858208865219e-01  3.3420047200319369e-01  3.2459101930963913e-01  3.1478601180695509e-01  3.0479135541988528e-01  2.9461307070066095e-01  2.8425728926909805e-01  2.7373025019626329e-01  2.6303829633410647e-01  2.5218787059695258e-01  2.4118551219883883e-01  2.3003785285287892e-01  2.1875161293936846e-01  2.0733359765087975e-01  1.9579069312546843e-01  1.8412986258026723e-01  1.7235814246356698e-01  1.6048263864915180e-01  1.4851052270612886e-01  1.3644902829298397e-01  1.2430544774925542e-01  1.1208712899939142e-01  9.9801472957532195e-02  8.7455931758146810e-02  7.5058008408452184e-02  6.2615259028626552e-02  5.0135300161422224e-02  3.7625826942195156e-02  2.5094657131722455e-02  1.2549844359930092e-02  -9.6153577458464685e-19  -0.0000000000000000e+00  2.5302168444030874e-02  5.0588895889204191e-02  7.5844984749106212e-02  1.0105524056807387e-01  1.2620448696265951e-01  1.5127757946519668e-01  1.7625941731802230e-01  2.0113495393713782e-01  2.2588920664602183e-01  2.5050726601795709e-01  2.7497430499657705e-01  2.9927558787615016e-01  3.2339647918065534e-01  3.4732245245806637e-01  3.7103909899800369e-01  3.9453213647296970e-01  4.1778741750202558e-01  4.4079093813386405e-01  4.6352884624533097e-01  4.8598744985038855e-01  5.0815322531550200e-01  5.3001282547569062e-01  5.5155308764756505e-01  5.7276104153268059e-01  5.9362391700842032e-01  6.1412915179953509e-01  6.3426439902741416e-01  6.5401753463052859e-01  6.7337666465352763e-01  6.9233013239812902e-01  7.1086652543350948e-01  7.2897468246043706e-01  7.4664370002548408e-01  7.6386293908127900e-01  7.8062203138823194e-01  7.9691088575406266e-01  8.1271969410707290e-01  8.2803893740051226e-01  8.4285939134275645e-01  8.5717213195017716e-01  8.7096854092078857e-01  8.8424031082329935e-01  8.9697945009986602e-01  9.0917828787815835e-01  9.2082947859187203e-01  9.3192600640430023e-01  9.4246118943396151e-01  9.5242868377908185e-01  9.6182248733940556e-01  9.7063694343077100e-01  9.7886674419283326e-01  9.8650693378659193e-01  9.9355291137962631e-01  1.0000004339169399e+00  1.0058456186777636e+00  1.0110849456138471e+00  1.0157152594696619e+00  1.0197337716831976e+00  1.0231380620654145e+00  1.0259260802580692e+00  1.0280961469680086e+00  1.0296469549784886e+00  1.0305775699367410e+00  1.0308874309155118e+00  1.0305763507511794e+00  1.0296445161550123e+00  1.0280924876013231e+00  1.0259211989889969e+00  1.0231319570784057e+00  1.0197264407045863e+00  1.0157066997648352e+00  1.0110751539849283e+00  1.0058345914615063e+00  9.9998816698331994e-01  9.9353940013256026e-01  9.8649217316505067e-01  9.7885072867526435e-01  9.7061966704191960e-01  9.6180394366191690e-01  9.5240886596815888e-01  9.4244009023927944e-01  9.3190361819743250e-01  9.2080579340187563e-01  9.0915329743628737e-01  8.9695314589502562e-01  8.8421268416945398e-01  8.7093958303807462e-01  8.5714183406304234e-01  8.4282774479526945e-01  8.2800593379248699e-01  8.1268532545392835e-01  7.9687514467299903e-01  7.8058491131433894e-01  7.6382443451665416e-01  7.4660380682669159e-01  7.2893339816864944e-01  7.1082384965290035e-01  6.9228606722707164e-01  6.7333121517826577e-01  6.5397070948719505e-01  6.3421621104231052e-01  6.1407961871793526e-01  5.9357306232392493e-01  5.7270889543192272e-01  5.5149968808657768e-01  5.2995821940847787e-01  5.0809747009836725e-01  4.8593061485215444e-01  4.6347101469776020e-01  4.4073220926765966e-01  4.1772790902334206e-01  3.9447198745153017e-01  3.7097847325748989e-01  3.4726154258865188e-01  3.2333551133316690e-01  2.9921482755473927e-01  2.7491406415251429e-01  2.5044791187567222e-01  2.2583117289186766e-01  2.0107875522588323e-01  1.7620566858826478e-01  1.5122702248981854e-01  1.2615802824506500e-01  1.0101400785404911e-01  7.5810415496023381e-02  5.0562882620646114e-02  2.5287305972651525e-02  -9.6066689754258149e-19  -0.0000000000000000e+00  3.8030267692630161e-02  7.6037409854296661e-02  1.1399854060271647e-01  1.5189080143519834e-01  1.8969137250312113e-01  2.2737748700955460e-01  2.6492644601140158e-01  3.0231563290527319e-01  3.3952252754280571e-01  3.7652472005579657e-01  4.1329992446983560e-01  4.4982599215883812e-01  4.8608092516938889e-01  5.2204288942906307e-01  5.5769022784341893e-01  5.9300147328163566e-01  6.2795536144653075e-01  6.6253084362435855e-01  6.9670709930739472e-01  7.3046354868272889e-01  7.6377986498007300e-01  7.9663598667111746e-01  8.2901212951239012e-01  8.6088879842568911e-01  8.9224679920697969e-01  9.2306725005834456e-01  9.5333159293363678e-01  9.8302160469274069e-01  1.0121194080568849e+00  1.0406074823571982e+00  1.0684686740714597e+00  1.0956862071413411e+00  1.1222436930638990e+00  1.1481251407526296e+00  1.1733149661585944e+00  1.1977980016496435e+00  1.2215595051388257e+00  1.2445851689581724e+00  1.2668611284718017e+00  1.2883739704229498e+00  1.3091107410095315e+00  1.3290589536843287e+00  1.3482065966744086e+00  1.3665421402139741e+00  1.3840545434884688e+00  1.4007332612843342e+00  1.4165682503395487e+00  1.4315499753939323e+00  1.4456694149316547e+00  1.4589180666160169e+00  1.4712879524102389e+00  1.4827716233839570e+00  1.4933621641999884e+00  1.5030531972795020e+00  1.5118388866447758e+00  1.5197139414333314e+00  1.5266736190855974e+00  1.5327137282014494e+00  1.5378306310645293e+00  1.5420212458334190e+00  1.5452830483972031e+00  1.5476140738952355e+00  1.5490129179009313e+00  1.5494787372661114e+00  1.5490112506288336e+00  1.5476107385812998e+00  1.5452780435010078e+00  1.5420145690424751e+00  1.5378222792908127e+00  1.5327036975788944e+00  1.5266619049663217e+00  1.5197005383844913e+00  1.5118237884459202e+00  1.5030363969210940e+00  1.4933436538841980e+00  1.4827513945280948e+00  1.4712659956530627e+00  1.4588943718294574e+00  1.4456439712379348e+00  1.4315227711894487e+00  1.4165392733274889e+00  1.4007024985171117e+00  1.3840219814220751e+00  1.3665077647754647e+00  1.3481703933461247e+00  1.3290209076055746e+00  1.3090708370995150e+00  1.2883321935281586e+00  1.2668174635395968e+00  1.2445396012417647e+00  1.2215120204376375e+00  1.1977485865885280e+00  1.1732636085116581e+00  1.1480718298173980e+00  1.1221884200917636e+00  1.0956289658315455e+00  1.0684094611370549e+00  1.0405462981704374e+00  1.0120562573864813e+00  9.8295649754344228e-01  9.5326454550133244e-01  9.2299828581713106e-01  8.9217595014442352e-01  8.6081610644947093e-01  8.2893764805166237e-01  7.9655978250088222e-01  7.6370202030571588e-01  7.3038416352533686e-01  6.9662629424173694e-01  6.6244876293262545e-01  6.2787217676696427e-01  5.9291738785205916e-01  5.5760548146728917e-01  5.2195776432956387e-01  4.8599575295036090e-01  4.4974116216597437e-01  4.1321589395330427e-01  3.7644202669288845e-01  3.3944180511637401e-01  3.0223763129609299e-01  2.6485205722798538e-01  2.2730777987612180e-01  1.8962764005529531e-01  1.5183462731365072e-01  1.1395189402253585e-01  7.6002782615833028e-02  3.8010867656199071e-02  -9.5921935068308550e-19  -0.0000000000000000e+00  5.0735220183580003e-02  1.0143965323740406e-01  1.5208274428322835e-01  2.0263398259377002e-01  2.5306291554774413e-01  3.0333916536986882e-01  3.5343244706833199e-01  4.0331258670479248e-01  4.5294953965875545e-01  5.0231340877672181e-01  5.5137446238114174e-01  6.0010315213902066e-01  6.4847013079386828e-01  6.9644626976204904e-01  7.4400267659105290e-01  7.9111071227432195e-01  8.3774200841579249e-01  8.8386848423513242e-01  9.2946236340543209e-01  9.7449619071218418e-01  1.0189428485250687e+00  1.0627755730717701e+00  1.1059679705044339e+00  1.1484940327472544e+00  1.1903281531178129e+00  1.2314451417099299e+00  1.2718202405310137e+00  1.3114291383814631e+00  1.3502479854696492e+00  1.3882534077516344e+00  1.4254225209876663e+00  1.4617329445060117e+00  1.4971628146661915e+00  1.5316907980132692e+00  1.5652961041141931e+00  1.5979584980696022e+00  1.6296583126920523e+00  1.6603764603445947e+00  1.6900944444307653e+00  1.7187943705300663e+00  1.7464589571721811e+00  1.7730715462422240e+00  1.7986161130122424e+00  1.8230772757909892e+00  1.8464403051872822e+00  1.8686911329813496e+00  1.8898163605976388e+00  1.9098032671754324e+00  1.9286398172305201e+00  1.9463146679049441e+00  1.9628171757996093e+00  1.9781374033853139e+00  1.9922661249892197e+00  2.0051948323515019e+00  2.0169157397514508e+00  2.0274217886962540e+00  2.0367066521731778e+00  2.0447647384605032e+00  2.0515911944955096e+00  2.0571819087970877e+00  2.0615335139419888e+00  2.0646433885916262e+00  2.0665096590717722e+00  2.0671312004992792e+00  2.0665076374588667e+00  2.0646393442280417e+00  2.0615274445513312e+00  2.0571738109620079e+00  2.0515810636535381e+00  2.0447525689010870e+00  2.0366924370332464e+00  2.0274055199561651e+00  2.0168974082322664e+00  2.0051744277133365e+00  1.9922436357330942e+00  1.9781128168584232e+00  1.9627904782045205e+00  1.9462858443160314e+00  1.9286088516173732e+00  1.9097701424360474e+00  1.8897810586023243e+00  1.8686536346304050e+00  1.8464005904843117e+00  1.8230353239339443e+00  1.7985719025059494e+00  1.7730250550349025e+00  1.7464101628203490e+00  1.7187432503948930e+00  1.6900409759099044e+00  1.6603206211461967e+00  1.6296000811541980e+00  1.5978978535323498e+00  1.5652330273506208e+00  1.5316252717262626e+00  1.4970948240606601e+00  1.4616624779443239e+00  1.4253495707400829e+00  1.3881779708521180e+00  1.3501700646921229e+00  1.3113487433505950e+00  1.2717373889852499e+00  1.2313598609368273e+00  1.1902404815848890e+00  1.1484040219555534e+00  1.1058756870959461e+00  1.0626811012284114e+00  1.0188462927036885e+00  9.7439767876934991e-01  9.2936205017560536e-01  8.8376655564212492e-01  8.3763868621555648e-01  7.9100625955086346e-01  7.4389740416053707e-01  6.9634054368367326e-01  6.4836438124446205e-01  5.9999788399057508e-01  5.5127026793301925e-01  5.0221098325433777e-01  4.5284970031822341e-01  4.0321629670831521e-01  3.5334084576172586e-01  3.0325360725079131e-01  2.5298502109788712e-01  2.0256570521229539e-01  1.5202645845986507e-01  1.0139826868825820e-01  5.0712321966123311e-02  -9.5719400595425975e-19  -0.0000000000000000e+00  6.3409348177450864e-02  1.2678026956009514e-01  1.9007456368034797e-01  2.5325408700929269e-01  3.1628077168549751e-01  3.7911664601759587e-01  4.4172385610814069e-01  5.0406468802881077e-01  5.6610159019916573e-01  6.2779719578901705e-01  6.8911434505680680e-01  7.5001610758089865e-01  8.1046580436083759e-01  8.7042702977224096e-01  9.2986367336361664e-01  9.8873994148193334e-01  1.0470203787150614e+00  1.1046698891389626e+00  1.1616537573565631e+00  1.2179376693154769e+00  1.2734877328918788e+00  1.3282704982281519e+00  1.3822529778109227e+00  1.4354026662771775e+00  1.4876875599365380e+00  1.5390761759966658e+00  1.5895375714806461e+00  1.6390413618238666e+00  1.6875577391390062e+00  1.7350574901376175e+00  1.7815120136979015e+00  1.8268933380668158e+00  1.8711741376860114e+00  1.9143277496320330e+00  1.9563281896592211e+00  1.9971501678368915e+00  2.0367691037699900e+00  2.0751611413941333e+00  2.1123031633369753e+00  2.1481728048345876e+00  2.1827484671970350e+00  2.2160093308137032e+00  2.2479353676895868e+00  2.2785073535065177e+00  2.3077068792002891e+00  2.3355163620479251e+00  2.3619190562577304e+00  2.3868990630550608e+00  2.4104413402585929e+00  2.4325317113411056e+00  2.4531568739688105e+00  2.4723044080142551e+00  2.4899627830373521e+00  2.5061213652315915e+00  2.5207704238291346e+00  2.5339011369621569e+00  2.5455055969771512e+00  2.5555768151971336e+00  2.5641087261318352e+00  2.5710961911299255e+00  2.5765350014739443e+00  2.5804218809143706e+00  2.5827544876425512e+00  2.5835314156997375e+00  2.5827521958228759e+00  2.5804172957260709e+00  2.5765281198176724e+00  2.5710870083535786e+00  2.5640972360260532e+00  2.5555630099909146e+00  2.5454894673331170e+00  2.5338826719727723e+00  2.5207496110128362e+00  2.5060981905323296e+00  2.4899372308273109e+00  2.4722764611006167e+00  2.4531265136071161e+00  2.4324989172555656e+00  2.4104060906735403e+00  2.3868613347365755e+00  2.3618788245695774e+00  2.3354736010243937e+00  2.3076615616384446e+00  2.2784594510813747e+00  2.2478848510948932e+00  2.2159561699330692e+00  2.1826926313105437e+00  2.1481142628637513e+00  2.1122418841350408e+00  2.0750970940871567e+00  2.0367022581550764e+00  1.9970804948460288e+00  1.9562556618945051e+00  1.9142523419840269e+00  1.8710958280441701e+00  1.8268121081331652e+00  1.7814278499175642e+00  1.7349703847595641e+00  1.6874676914245834e+00  1.6389483794205824e+00  1.5894416719826123e+00  1.5389773887162528e+00  1.4875859279148014e+00  1.4352982485651844e+00  1.3821458520601306e+00  1.3281607636338901e+00  1.2733755135422209e+00  1.2178231180083197e+00  1.1615370599596597e+00  1.1045512695837252e+00  1.0469001047363549e+00  9.8861833124070742e-01  9.2974110312465885e-01  8.7030394285297896e-01  8.1034272162711440e-01  7.4989363984316371e-01  6.8899320782554430e-01  6.2767822698946329e-01  5.6598577163247632e-01  5.0395317161465425e-01  4.4161799625885867e-01  3.7901803987190608e-01  3.1619130931126332e-01  2.5317601390514988e-01  1.9001055755152108e-01  1.2673353157503769e-01  6.3383704374390226e-02  -9.5459208334803626e-19  -0.0000000000000000e+00  7.6044994189277709e-02  1.5204394690545078e-01  2.2795103856329405e-01  3.0372051749760559e-01  3.7930672384589742e-01  4.5466411450046940e-01  5.2974728887746902e-01  6.0451101520844175e-01  6.7891025709998742e-01  7.5290020018837178e-01  8.2643627878096915e-01  8.9947420241791887e-01  9.7196998231147802e-01  1.0438799576326403e+00  1.1151608216225271e+00  1.1857696475075401e+00  1.2556639142016663e+00  1.3248015317779884e+00  1.3931408666933593e+00  1.4606407667493870e+00  1.5272605857746246e+00  1.5929602080118181e+00  1.6577000721946742e+00  1.7214411952993727e+00  1.7841451959548986e+00  1.8457743174990640e+00  1.9062914506643671e+00  1.9656601558794808e+00  2.0238446851734193e+00  2.0808100036681263e+00  2.1365218106463120e+00  2.1909465601805134e+00  2.2440514813124310e+00  2.2958045977679471e+00  2.3461747471975221e+00  2.3951315999282548e+00  2.4426456772179876e+00  2.4886883689981447e+00  2.5332319510967127e+00  2.5762496019276755e+00  2.6177154186397025e+00  2.6576044327130641e+00  2.6958926249940762e+00  2.7325569401590375e+00  2.7675753005990322e+00  2.8009266197161522e+00  2.8325908146237526e+00  2.8625488182422902e+00  2.890782590