<?xml version="1.0"?>
<VTKFile type="UnstructuredGrid"  version="0.1"  >
<UnstructuredGrid>
<Piece  NumberOfPoints="16641" NumberOfCells="32768">
<Points>
<DataArray  type="Float64"  NumberOfComponents="3"  format="ascii">0 0 0  0.0078125 0 0  0.015625 0 0  0.0234375 0 0  0.03125 0 0  0.0390625 0 0  0.046875 0 0  0.0546875 0 0  0.0625 0 0  0.0703125 0 0  0.078125 0 0  0.0859375 0 0  0.09375 0 0  0.1015625 0 0  0.109375 0 0  0.1171875 0 0  0.125 0 0  0.1328125 0 0  0.140625 0 0  0.1484375 0 0  0.15625 0 0  0.1640625 0 0  0.171875 0 0  0.1796875 0 0  0.1875 0 0  0.1953125 0 0  0.203125 0 0  0.2109375 0 0  0.21875 0 0  0.2265625 0 0  0.234375 0 0  0.2421875 0 0  0.25 0 0  0.2578125 0 0  0.265625 0 0  0.2734375 0 0  0.28125 0 0  0.2890625 0 0  0.296875 0 0  0.3046875 0 0  0.3125 0 0  0.3203125 0 0  0.328125 0 0  0.3359375 0 0  0.34375 0 0  0.3515625 0 0  0.359375 0 0  0.3671875 0 0  0.375 0 0  0.3828125 0 0  0.390625 0 0  0.3984375 0 0  0.40625 0 0  0.4140625 0 0  0.421875 0 0  0.4296875 0 0  0.4375 0 0  0.4453125 0 0  0.453125 0 0  0.4609375 0 0  0.46875 0 0  0.4765625 0 0  0.484375 0 0  0.4921875 0 0  0.5 0 0  0.5078125 0 0  0.515625 0 0  0.5234375 0 0  0.53125 0 0  0.5390625 0 0  0.546875 0 0  0.5546875 0 0  0.5625 0 0  0.5703125 0 0  0.578125 0 0  0.5859375 0 0  0.59375 0 0  0.6015625 0 0  0.609375 0 0  0.6171875 0 0  0.625 0 0  0.6328125 0 0  0.640625 0 0  0.6484375 0 0  0.65625 0 0  0.6640625 0 0  0.671875 0 0  0.6796875 0 0  0.6875 0 0  0.6953125 0 0  0.703125 0 0  0.7109375 0 0  0.71875 0 0  0.7265625 0 0  0.734375 0 0  0.7421875 0 0  0.75 0 0  0.7578125 0 0  0.765625 0 0  0.7734375 0 0  0.78125 0 0  0.7890625 0 0  0.796875 0 0  0.8046875 0 0  0.8125 0 0  0.8203125 0 0  0.828125 0 0  0.8359375 0 0  0.84375 0 0  0.8515625 0 0  0.859375 0 0  0.8671875 0 0  0.875 0 0  0.8828125 0 0  0.890625 0 0  0.8984375 0 0  0.90625 0 0  0.9140625 0 0  0.921875 0 0  0.9296875 0 0  0.9375 0 0  0.9453125 0 0  0.953125 0 0  0.9609375 0 0  0.96875 0 0  0.9765625 0 0  0.984375 0 0  0.9921875 0 0  1 0 0  0 0.0078125 0  0.0078125 0.0078125 0  0.015625 0.0078125 0  0.0234375 0.0078125 0  0.03125 0.0078125 0  0.0390625 0.0078125 0  0.046875 0.0078125 0  0.0546875 0.0078125 0  0.0625 0.0078125 0  0.0703125 0.0078125 0  0.078125 0.0078125 0  0.0859375 0.0078125 0  0.09375 0.0078125 0  0.1015625 0.0078125 0  0.109375 0.0078125 0  0.1171875 0.0078125 0  0.125 0.0078125 0  0.1328125 0.0078125 0  0.140625 0.0078125 0  0.1484375 0.0078125 0  0.15625 0.0078125 0  0.1640625 0.0078125 0  0.171875 0.0078125 0  0.1796875 0.0078125 0  0.1875 0.0078125 0  0.1953125 0.0078125 0  0.203125 0.0078125 0  0.2109375 0.0078125 0  0.21875 0.0078125 0  0.2265625 0.0078125 0  0.234375 0.0078125 0  0.2421875 0.0078125 0  0.25 0.0078125 0  0.2578125 0.0078125 0  0.265625 0.0078125 0  0.2734375 0.0078125 0  0.28125 0.0078125 0  0.2890625 0.0078125 0  0.296875 0.0078125 0  0.3046875 0.0078125 0  0.3125 0.0078125 0  0.3203125 0.0078125 0  0.328125 0.0078125 0  0.3359375 0.0078125 0  0.34375 0.0078125 0  0.3515625 0.0078125 0  0.359375 0.0078125 0  0.3671875 0.0078125 0  0.375 0.0078125 0  0.3828125 0.0078125 0  0.390625 0.0078125 0  0.3984375 0.0078125 0  0.40625 0.0078125 0  0.4140625 0.0078125 0  0.421875 0.0078125 0  0.4296875 0.0078125 0  0.4375 0.0078125 0  0.4453125 0.0078125 0  0.453125 0.0078125 0  0.4609375 0.0078125 0  0.46875 0.0078125 0  0.4765625 0.0078125 0  0.484375 0.0078125 0  0.4921875 0.0078125 0  0.5 0.0078125 0  0.5078125 0.0078125 0  0.515625 0.0078125 0  0.5234375 0.0078125 0  0.53125 0.0078125 0  0.5390625 0.0078125 0  0.546875 0.0078125 0  0.5546875 0.0078125 0  0.5625 0.0078125 0  0.5703125 0.0078125 0  0.578125 0.0078125 0  0.5859375 0.0078125 0  0.59375 0.0078125 0  0.6015625 0.0078125 0  0.609375 0.0078125 0  0.6171875 0.0078125 0  0.625 0.0078125 0  0.6328125 0.0078125 0  0.640625 0.0078125 0  0.6484375 0.0078125 0  0.65625 0.0078125 0  0.6640625 0.0078125 0  0.671875 0.0078125 0  0.6796875 0.0078125 0  0.6875 0.0078125 0  0.6953125 0.0078125 0  0.703125 0.0078125 0  0.7109375 0.0078125 0  0.71875 0.0078125 0  0.7265625 0.0078125 0  0.734375 0.0078125 0  0.7421875 0.0078125 0  0.75 0.0078125 0  0.7578125 0.0078125 0  0.765625 0.0078125 0  0.7734375 0.0078125 0  0.78125 0.0078125 0  0.7890625 0.0078125 0  0.796875 0.0078125 0  0.8046875 0.0078125 0  0.8125 0.0078125 0  0.8203125 0.0078125 0  0.828125 0.0078125 0  0.8359375 0.0078125 0  0.84375 0.0078125 0  0.8515625 0.0078125 0  0.859375 0.0078125 0  0.8671875 0.0078125 0  0.875 0.0078125 0  0.8828125 0.0078125 0  0.890625 0.0078125 0  0.8984375 0.0078125 0  0.90625 0.0078125 0  0.9140625 0.0078125 0  0.921875 0.0078125 0  0.9296875 0.0078125 0  0.9375 0.0078125 0  0.9453125 0.0078125 0  0.953125 0.0078125 0  0.9609375 0.0078125 0  0.96875 0.0078125 0  0.9765625 0.0078125 0  0.984375 0.0078125 0  0.9921875 0.0078125 0  1 0.0078125 0  0 0.015625 0  0.0078125 0.015625 0  0.015625 0.015625 0  0.0234375 0.015625 0  0.03125 0.015625 0  0.0390625 0.015625 0  0.046875 0.015625 0  0.0546875 0.015625 0  0.0625 0.015625 0  0.0703125 0.015625 0  0.078125 0.015625 0  0.0859375 0.015625 0  0.09375 0.015625 0  0.1015625 0.015625 0  0.109375 0.015625 0  0.1171875 0.015625 0  0.125 0.015625 0  0.1328125 0.015625 0  0.140625 0.015625 0  0.1484375 0.015625 0  0.15625 0.015625 0  0.1640625 0.015625 0  0.171875 0.015625 0  0.1796875 0.015625 0  0.1875 0.015625 0  0.1953125 0.015625 0  0.203125 0.015625 0  0.2109375 0.015625 0  0.21875 0.015625 0  0.2265625 0.015625 0  0.234375 0.015625 0  0.2421875 0.015625 0  0.25 0.015625 0  0.2578125 0.015625 0  0.265625 0.015625 0  0.2734375 0.015625 0  0.28125 0.015625 0  0.2890625 0.015625 0  0.296875 0.015625 0  0.3046875 0.015625 0  0.3125 0.015625 0  0.3203125 0.015625 0  0.328125 0.015625 0  0.3359375 0.015625 0  0.34375 0.015625 0  0.3515625 0.015625 0  0.359375 0.015625 0  0.3671875 0.015625 0  0.375 0.015625 0  0.3828125 0.015625 0  0.390625 0.015625 0  0.3984375 0.015625 0  0.40625 0.015625 0  0.4140625 0.015625 0  0.421875 0.015625 0  0.4296875 0.015625 0  0.4375 0.015625 0  0.4453125 0.015625 0  0.453125 0.015625 0  0.4609375 0.015625 0  0.46875 0.015625 0  0.4765625 0.015625 0  0.484375 0.015625 0  0.4921875 0.015625 0  0.5 0.015625 0  0.5078125 0.015625 0  0.515625 0.015625 0  0.5234375 0.015625 0  0.53125 0.015625 0  0.5390625 0.015625 0  0.546875 0.015625 0  0.5546875 0.015625 0  0.5625 0.015625 0  0.5703125 0.015625 0  0.578125 0.015625 0  0.5859375 0.015625 0  0.59375 0.015625 0  0.6015625 0.015625 0  0.609375 0.015625 0  0.6171875 0.015625 0  0.625 0.015625 0  0.6328125 0.015625 0  0.640625 0.015625 0  0.6484375 0.015625 0  0.65625 0.015625 0  0.6640625 0.015625 0  0.671875 0.015625 0  0.6796875 0.015625 0  0.6875 0.015625 0  0.6953125 0.015625 0  0.703125 0.015625 0  0.7109375 0.015625 0  0.71875 0.015625 0  0.7265625 0.015625 0  0.734375 0.015625 0  0.7421875 0.015625 0  0.75 0.015625 0  0.7578125 0.015625 0  0.765625 0.015625 0  0.7734375 0.015625 0  0.78125 0.015625 0  0.7890625 0.015625 0  0.796875 0.015625 0  0.8046875 0.015625 0  0.8125 0.015625 0  0.8203125 0.015625 0  0.828125 0.015625 0  0.8359375 0.015625 0  0.84375 0.015625 0  0.8515625 0.015625 0  0.859375 0.015625 0  0.8671875 0.015625 0  0.875 0.015625 0  0.8828125 0.015625 0  0.890625 0.015625 0  0.8984375 0.015625 0  0.90625 0.015625 0  0.9140625 0.015625 0  0.921875 0.015625 0  0.9296875 0.015625 0  0.9375 0.015625 0  0.9453125 0.015625 0  0.953125 0.015625 0  0.9609375 0.015625 0  0.96875 0.015625 0  0.9765625 0.015625 0  0.984375 0.015625 0  0.9921875 0.015625 0  1 0.015625 0  0 0.0234375 0  0.0078125 0.0234375 0  0.015625 0.0234375 0  0.0234375 0.0234375 0  0.03125 0.0234375 0  0.0390625 0.0234375 0  0.046875 0.0234375 0  0.0546875 0.0234375 0  0.0625 0.0234375 0  0.0703125 0.0234375 0  0.078125 0.0234375 0  0.0859375 0.0234375 0  0.09375 0.0234375 0  0.1015625 0.0234375 0  0.109375 0.0234375 0  0.1171875 0.0234375 0  0.125 0.0234375 0  0.1328125 0.0234375 0  0.140625 0.0234375 0  0.1484375 0.0234375 0  0.15625 0.0234375 0  0.1640625 0.0234375 0  0.171875 0.0234375 0  0.1796875 0.0234375 0  0.1875 0.0234375 0  0.1953125 0.0234375 0  0.203125 0.0234375 0  0.2109375 0.0234375 0  0.21875 0.0234375 0  0.2265625 0.0234375 0  0.234375 0.0234375 0  0.2421875 0.0234375 0  0.25 0.0234375 0  0.2578125 0.0234375 0  0.265625 0.0234375 0  0.2734375 0.0234375 0  0.28125 0.0234375 0  0.2890625 0.0234375 0  0.296875 0.0234375 0  0.3046875 0.0234375 0  0.3125 0.0234375 0  0.3203125 0.0234375 0  0.328125 0.0234375 0  0.3359375 0.0234375 0  0.34375 0.0234375 0  0.3515625 0.0234375 0  0.359375 0.0234375 0  0.3671875 0.0234375 0  0.375 0.0234375 0  0.3828125 0.0234375 0  0.390625 0.0234375 0  0.3984375 0.0234375 0  0.40625 0.0234375 0  0.4140625 0.0234375 0  0.421875 0.0234375 0  0.4296875 0.0234375 0  0.4375 0.0234375 0  0.4453125 0.0234375 0  0.453125 0.0234375 0  0.4609375 0.0234375 0  0.46875 0.0234375 0  0.4765625 0.0234375 0  0.484375 0.0234375 0  0.4921875 0.0234375 0  0.5 0.0234375 0  0.5078125 0.0234375 0  0.515625 0.0234375 0  0.5234375 0.0234375 0  0.53125 0.0234375 0  0.5390625 0.0234375 0  0.546875 0.0234375 0  0.5546875 0.0234375 0  0.5625 0.0234375 0  0.5703125 0.0234375 0  0.578125 0.0234375 0  0.5859375 0.0234375 0  0.59375 0.0234375 0  0.6015625 0.0234375 0  0.609375 0.0234375 0  0.6171875 0.0234375 0  0.625 0.0234375 0  0.6328125 0.0234375 0  0.640625 0.0234375 0  0.6484375 0.0234375 0  0.65625 0.0234375 0  0.6640625 0.0234375 0  0.671875 0.0234375 0  0.6796875 0.0234375 0  0.6875 0.0234375 0  0.6953125 0.0234375 0  0.703125 0.0234375 0  0.7109375 0.0234375 0  0.71875 0.0234375 0  0.7265625 0.0234375 0  0.734375 0.0234375 0  0.7421875 0.0234375 0  0.75 0.0234375 0  0.7578125 0.0234375 0  0.765625 0.0234375 0  0.7734375 0.0234375 0  0.78125 0.0234375 0  0.7890625 0.0234375 0  0.796875 0.0234375 0  0.8046875 0.0234375 0  0.8125 0.0234375 0  0.8203125 0.0234375 0  0.828125 0.0234375 0  0.8359375 0.0234375 0  0.84375 0.0234375 0  0.8515625 0.0234375 0  0.859375 0.0234375 0  0.8671
[...]
<PointData  Vectors="f_162459-0"> 
<DataArray  type="Float64"  Name="f_162459-0"  NumberOfComponents="3" format="ascii">0.0000000000000000e+00 0.0000000000000000e+00 0.0000000000000000e+00  0.0000000000000000e+00 9.6372931349212194e-05 0.0000000000000000e+00  0.0000000000000000e+00 1.9268781124819563e-04 0.0000000000000000e+00  0.0000000000000000e+00 2.8888662321474448e-04 0.0000000000000000e+00  0.0000000000000000e+00 3.8491142068163540e-04 0.0000000000000000e+00  0.0000000000000000e+00 4.8070436190147275e-04 0.0000000000000000e+00  0.0000000000000000e+00 5.7620774478839450e-04 0.0000000000000000e+00  0.0000000000000000e+00 6.7136404167565103e-04 0.0000000000000000e+00  0.0000000000000000e+00 7.6611593396812055e-04 0.0000000000000000e+00  0.0000000000000000e+00 8.6040634666888780e-04 0.0000000000000000e+00  0.0000000000000000e+00 9.5417848275908702e-04 0.0000000000000000e+00  0.0000000000000000e+00 1.0473758574103037e-03 0.0000000000000000e+00  0.0000000000000000e+00 1.1399423320089224e-03 0.0000000000000000e+00  0.0000000000000000e+00 1.2318221479719284e-03 0.0000000000000000e+00  0.0000000000000000e+00 1.3229599603337926e-03 0.0000000000000000e+00  0.0000000000000000e+00 1.4133008710842110e-03 0.0000000000000000e+00  0.0000000000000000e+00 1.5027904622366120e-03 0.0000000000000000e+00  0.0000000000000000e+00 1.5913748286075162e-03 0.0000000000000000e+00  0.0000000000000000e+00 1.6790006102870047e-03 0.0000000000000000e+00  0.0000000000000000e+00 1.7656150247807329e-03 0.0000000000000000e+00  0.0000000000000000e+00 1.8511658988041317e-03 0.0000000000000000e+00  0.0000000000000000e+00 1.9356016997096419e-03 0.0000000000000000e+00  0.0000000000000000e+00 2.0188715665280564e-03 0.0000000000000000e+00  0.0000000000000000e+00 2.1009253406052645e-03 0.0000000000000000e+00  0.0000000000000000e+00 2.1817135958159509e-03 0.0000000000000000e+00  0.0000000000000000e+00 2.2611876683360436e-03 0.0000000000000000e+00  0.0000000000000000e+00 2.3392996859559830e-03 0.0000000000000000e+00  0.0000000000000000e+00 2.4160025969171520e-03 0.0000000000000000e+00  0.0000000000000000e+00 2.4912501982540941e-03 0.0000000000000000e+00  0.0000000000000000e+00 2.5649971636254529e-03 0.0000000000000000e+00  0.0000000000000000e+00 2.6371990706168650e-03 0.0000000000000000e+00  0.0000000000000000e+00 2.7078124274993627e-03 0.0000000000000000e+00  0.0000000000000000e+00 2.7767946994271629e-03 0.0000000000000000e+00  0.0000000000000000e+00 2.8441043340590700e-03 0.0000000000000000e+00  0.0000000000000000e+00 2.9097007865880506e-03 0.0000000000000000e+00  0.0000000000000000e+00 2.9735445441639104e-03 0.0000000000000000e+00  0.0000000000000000e+00 3.0355971496943590e-03 0.0000000000000000e+00  0.0000000000000000e+00 3.0958212250101194e-03 0.0000000000000000e+00  0.0000000000000000e+00 3.1541804933801453e-03 0.0000000000000000e+00  0.0000000000000000e+00 3.2106398013633649e-03 0.0000000000000000e+00  0.0000000000000000e+00 3.2651651399837976e-03 0.0000000000000000e+00  0.0000000000000000e+00 3.3177236652162925e-03 0.0000000000000000e+00  0.0000000000000000e+00 3.3682837177705402e-03 0.0000000000000000e+00  0.0000000000000000e+00 3.4168148421614424e-03 0.0000000000000000e+00  0.0000000000000000e+00 3.4632878050543632e-03 0.0000000000000000e+00  0.0000000000000000e+00 3.5076746128741916e-03 0.0000000000000000e+00  0.0000000000000000e+00 3.5499485286676264e-03 0.0000000000000000e+00  0.0000000000000000e+00 3.5900840882085168e-03 0.0000000000000000e+00  0.0000000000000000e+00 3.6280571153365611e-03 0.0000000000000000e+00  0.0000000000000000e+00 3.6638447365201199e-03 0.0000000000000000e+00  0.0000000000000000e+00 3.6974253946343784e-03 0.0000000000000000e+00  0.0000000000000000e+00 3.7287788619465492e-03 0.0000000000000000e+00  0.0000000000000000e+00 3.7578862523003063e-03 0.0000000000000000e+00  0.0000000000000000e+00 3.7847300324920941e-03 0.0000000000000000e+00  0.0000000000000000e+00 3.8092940328324806e-03 0.0000000000000000e+00  0.0000000000000000e+00 3.8315634568861674e-03 0.0000000000000000e+00  0.0000000000000000e+00 3.8515248903848113e-03 0.0000000000000000e+00  0.0000000000000000e+00 3.8691663093072793e-03 0.0000000000000000e+00  0.0000000000000000e+00 3.8844770871224680e-03 0.0000000000000000e+00  0.0000000000000000e+00 3.8974480011903269e-03 0.0000000000000000e+00  0.0000000000000000e+00 3.9080712383172365e-03 0.0000000000000000e+00  0.0000000000000000e+00 3.9163403994623806e-03 0.0000000000000000e+00  0.0000000000000000e+00 3.9222505035922881e-03 0.0000000000000000e+00  0.0000000000000000e+00 3.9257979906812245e-03 0.0000000000000000e+00  0.0000000000000000e+00 3.9269807238556161e-03 0.0000000000000000e+00  -0.0000000000000000e+00 3.9257979906812245e-03 0.0000000000000000e+00  -0.0000000000000000e+00 3.9222505035922881e-03 0.0000000000000000e+00  -0.0000000000000000e+00 3.9163403994623806e-03 0.0000000000000000e+00  -0.0000000000000000e+00 3.9080712383172374e-03 0.0000000000000000e+00  -0.0000000000000000e+00 3.8974480011903269e-03 0.0000000000000000e+00  -0.0000000000000000e+00 3.8844770871224680e-03 0.0000000000000000e+00  -0.0000000000000000e+00 3.8691663093072793e-03 0.0000000000000000e+00  -0.0000000000000000e+00 3.8515248903848113e-03 0.0000000000000000e+00  -0.0000000000000000e+00 3.8315634568861674e-03 0.0000000000000000e+00  -0.0000000000000000e+00 3.8092940328324806e-03 0.0000000000000000e+00  -0.0000000000000000e+00 3.7847300324920941e-03 0.0000000000000000e+00  -0.0000000000000000e+00 3.7578862523003063e-03 0.0000000000000000e+00  -0.0000000000000000e+00 3.7287788619465492e-03 0.0000000000000000e+00  -0.0000000000000000e+00 3.6974253946343784e-03 0.0000000000000000e+00  -0.0000000000000000e+00 3.6638447365201199e-03 0.0000000000000000e+00  -0.0000000000000000e+00 3.6280571153365611e-03 0.0000000000000000e+00  -0.0000000000000000e+00 3.5900840882085168e-03 0.0000000000000000e+00  -0.0000000000000000e+00 3.5499485286676269e-03 0.0000000000000000e+00  -0.0000000000000000e+00 3.5076746128741912e-03 0.0000000000000000e+00  -0.0000000000000000e+00 3.4632878050543637e-03 0.0000000000000000e+00  -0.0000000000000000e+00 3.4168148421614428e-03 0.0000000000000000e+00  -0.0000000000000000e+00 3.3682837177705402e-03 0.0000000000000000e+00  -0.0000000000000000e+00 3.3177236652162934e-03 0.0000000000000000e+00  -0.0000000000000000e+00 3.2651651399837984e-03 0.0000000000000000e+00  -0.0000000000000000e+00 3.2106398013633649e-03 0.0000000000000000e+00  -0.0000000000000000e+00 3.1541804933801457e-03 0.0000000000000000e+00  -0.0000000000000000e+00 3.0958212250101198e-03 0.0000000000000000e+00  -0.0000000000000000e+00 3.0355971496943595e-03 0.0000000000000000e+00  -0.0000000000000000e+00 2.9735445441639113e-03 0.0000000000000000e+00  -0.0000000000000000e+00 2.9097007865880502e-03 0.0000000000000000e+00  -0.0000000000000000e+00 2.8441043340590700e-03 0.0000000000000000e+00  -0.0000000000000000e+00 2.7767946994271633e-03 0.0000000000000000e+00  -0.0000000000000000e+00 2.7078124274993636e-03 0.0000000000000000e+00  -0.0000000000000000e+00 2.6371990706168659e-03 0.0000000000000000e+00  -0.0000000000000000e+00 2.5649971636254524e-03 0.0000000000000000e+00  -0.0000000000000000e+00 2.4912501982540941e-03 0.0000000000000000e+00  -0.0000000000000000e+00 2.4160025969171524e-03 0.0000000000000000e+00  -0.0000000000000000e+00 2.3392996859559834e-03 0.0000000000000000e+00  -0.0000000000000000e+00 2.2611876683360441e-03 0.0000000000000000e+00  -0.0000000000000000e+00 2.1817135958159509e-03 0.0000000000000000e+00  -0.0000000000000000e+00 2.1009253406052645e-03 0.0000000000000000e+00  -0.0000000000000000e+00 2.0188715665280569e-03 0.0000000000000000e+00  -0.0000000000000000e+00 1.9356016997096423e-03 0.0000000000000000e+00  -0.0000000000000000e+00 1.8511658988041326e-03 0.0000000000000000e+00  -0.0000000000000000e+00 1.7656150247807342e-03 0.0000000000000000e+00  -0.0000000000000000e+00 1.6790006102870045e-03 0.0000000000000000e+00  -0.0000000000000000e+00 1.5913748286075164e-03 0.0000000000000000e+00  -0.0000000000000000e+00 1.5027904622366124e-03 0.0000000000000000e+00  -0.0000000000000000e+00 1.4133008710842119e-03 0.0000000000000000e+00  -0.0000000000000000e+00 1.3229599603337937e-03 0.0000000000000000e+00  -0.0000000000000000e+00 1.2318221479719279e-03 0.0000000000000000e+00  -0.0000000000000000e+00 1.1399423320089226e-03 0.0000000000000000e+00  -0.0000000000000000e+00 1.0473758574103041e-03 0.0000000000000000e+00  -0.0000000000000000e+00 9.5417848275908778e-04 0.0000000000000000e+00  -0.0000000000000000e+00 8.6040634666888877e-04 0.0000000000000000e+00  -0.0000000000000000e+00 7.6611593396812196e-04 0.0000000000000000e+00  -0.0000000000000000e+00 6.7136404167565103e-04 0.0000000000000000e+00  -0.0000000000000000e+00 5.7620774478839472e-04 0.0000000000000000e+00  -0.0000000000000000e+00 4.8070436190147335e-04 0.0000000000000000e+00  -0.0000000000000000e+00 3.8491142068163627e-04 0.0000000000000000e+00  -0.0000000000000000e+00 2.8888662321474568e-04 0.0000000000000000e+00  -0.0000000000000000e+00 1.9268781124819544e-04 0.0000000000000000e+00  -0.0000000000000000e+00 9.6372931349212343e-05 0.0000000000000000e+00  -0.0000000000000000e+00 4.8091643737831363e-19 0.0000000000000000e+00  9.6372931349212194e-05 0.0000000000000000e+00 0.0000000000000000e+00  9.6332615436975740e-05 9.6332615429699903e-05 0.0000000000000000e+00  9.6241104073839853e-05 1.9261662167168711e-04 0.0000000000000000e+00  9.6094335738923742e-05 2.8878604597861498e-04 0.0000000000000000e+00  9.5890561422157887e-05 3.8478187962942448e-04 0.0000000000000000e+00  9.5629385252606674e-05 4.8054602180291163e-04 0.0000000000000000e+00  9.5310783258325204e-05 5.7602071235028944e-04 0.0000000000000000e+00  9.4934869625959699e-05 6.7114841994521033e-04 0.0000000000000000e+00  9.4501831915071223e-05 7.6587183798299300e-04 0.0000000000000000e+00  9.4011909404675918e-05 8.6013390807750177e-04 0.0000000000000000e+00  9.3465384377010595e-05 9.5387785109040518e-04 0.0000000000000000e+00  9.2862578013982211e-05 1.0470472002673203e-03 0.0000000000000000e+00  9.2203848208714838e-05 1.1395858349150399e-03 0.0000000000000000e+00  9.1489588261875956e-05 1.2314380141070656e-03 0.0000000000000000e+00  9.0720226025257835e-05 1.3225484102538439e-03 0.0000000000000000e+00  8.9896223264406726e-05 1.4128621424442716e-03 0.0000000000000000e+00  8.9018075148968368e-05 1.5023248095309986e-03 0.0000000000000000e+00  8.8086309800653497e-05 1.5908825229169277e-03 0.0000000000000000e+00  8.7101487880699902e-05 1.6784819390392948e-03 0.0000000000000000e+00  8.6064202179679595e-05 1.7650702915155861e-03 0.0000000000000000e+00  8.4975077215320515e-05 1.8505954229458212e-03 0.0000000000000000e+00  8.3834768820343811e-05 1.9350058163327478e-03 0.0000000000000000e+00  8.2643963729267438e-05 2.0182506261287331e-03 0.0000000000000000e+00  8.1403379140600933e-05 2.1002797088641046e-03 0.0000000000000000e+00  8.0113762276192400e-05 2.1810436533644560e-03 0.0000000000000000e+00  7.8775889916909983e-05 2.2604938105089405e-03 0.0000000000000000e+00  7.7390567932620382e-05 2.3385823225419325e-03 0.0000000000000000e+00  7.5958630787690155e-05 2.4152621519031039e-03 0.0000000000000000e+00  7.4480941034924604e-05 2.4904871095672060e-03 0.0000000000000000e+00  7.2958388788801272e-05 2.5642118828579146e-03 0.0000000000000000e+00  7.1391891194612351e-05 2.6363920627516355e-03 0.0000000000000000e+00  6.9782391867183915e-05 2.7069841706254989e-03 0.0000000000000000e+00  6.8130860323647107e-05 2.7759456844550405e-03 0.0000000000000000e+00  6.6438291394900576e-05 2.8432350644116136e-03 0.0000000000000000e+00  6.4705704626734915e-05 2.9088117779095136e-03 0.0000000000000000e+00  6.2934143667092170e-05 2.9726363239908453e-03 0.0000000000000000e+00  6.1124675639166514e-05 3.0346702571526830e-03 0.0000000000000000e+00  5.9278390487828593e-05 3.0948762104789679e-03 0.0000000000000000e+00  5.7396400335710434e-05 3.1532179181639570e-03 0.0000000000000000e+00  5.5479838802901976e-05 3.2096602373497003e-03 0.0000000000000000e+00  5.3529860329838737e-05 3.2641691693057937e-03 0.0000000000000000e+00  5.1547639473794629e-05 3.3167118798942538e-03 0.0000000000000000e+00  4.9534370212623616e-05 3.3672567193546469e-03 0.0000000000000000e+00  4.7491265220815392e-05 3.4157732413709232e-03 0.0000000000000000e+00  4.5419555137005395e-05 3.4622322214143413e-03 0.0000000000000000e+00  4.3320487819590866e-05 3.5066056743340195e-03 0.0000000000000000e+00  4.1195327607584569e-05 3.5488668712266472e-03 0.0000000000000000e+00  3.9045354546822026e-05 3.5889903555285851e-03 0.0000000000000000e+00  3.6871863626443153e-05 3.6269519583617890e-03 0.0000000000000000e+00  3.4676163991422138e-05 3.6627288130794827e-03 0.0000000000000000e+00  3.2459578163409809e-05 3.6962993690418558e-03 0.0000000000000000e+00  3.0223441241564176e-05 3.7276434046041381e-03 0.0000000000000000e+00  2.7969100095253063e-05 3.7567420392999470e-03 0.0000000000000000e+00  2.5697912550159950e-05 3.7835777451978463e-03 0.0000000000000000e+00  2.3411246584373834e-05 3.8081343574755057e-03 0.0000000000000000e+00  2.1110479490634890e-05 3.8303970841471508e-03 0.0000000000000000e+00  1.8796997054263490e-05 3.8503525149858136e-03 0.0000000000000000e+00  1.6472192711960953e-05 3.8679886295851858e-03 0.0000000000000000e+00  1.4137466723022382e-05 3.8832948046099575e-03 0.0000000000000000e+00  1.1794225318742975e-05 3.8962618201912008e-03 0.0000000000000000e+00  9.4438798595241290e-06 3.9068818654898621e-03 0.0000000000000000e+00  7.0878459766341321e-06 3.9151485433852225e-03 0.0000000000000000e+00  4.7275427340539817e-06 3.9210568743403675e-03 0.0000000000000000e+00  2.3643917628950302e-06 3.9246032993940361e-03 0.0000000000000000e+00  -1.8358899298172245e-10 3.9257856823172350e-03 0.0000000000000000e+00  -2.3647591209905277e-06 3.9246033108847646e-03 0.0000000000000000e+00  -4.7279106282423286e-06 3.9210568973091159e-03 0.0000000000000000e+00  -7.0882147627730236e-06 3.9151485778155916e-03 0.0000000000000000e+00  -9.4442498919639429e-06 3.9068819113586544e-03 0.0000000000000000e+00  -1.1794596958934265e-05 3.8962618774620464e-03 0.0000000000000000e+00  -1.4137840323218840e-05 3.8832948732369791e-03 0.0000000000000000e+00  -1.6472568625820049e-05 3.8679887095151963e-03 0.0000000000000000e+00  -1.8797375633406097e-05 3.8503526061607778e-03 0.0000000000000000e+00  -2.1110861091762374e-05 3.8303971864956290e-03 0.0000000000000000e+00  -2.3411631556469685e-05 3.8081344709148366e-03 0.0000000000000000e+00  -2.5698301242514881e-05 3.7835778696384821e-03 0.0000000000000000e+00  -2.7969492853518806e-05 3.7567421746469137e-03 0.0000000000000000e+00  -3.0223838419050446e-05 3.7276435507493347e-03 0.0000000000000000e+00  -3.2459980103716477e-05 3.6962995258644099e-03 0.0000000000000000e+00  -3.4676571037484013e-05 3.6627289804511509e-03 0.0000000000000000e+00  -3.6872276119841999e-05 3.6269521361495158e-03 0.0000000000000000e+00  -3.9045772832772424e-05 3.5889905435812649e-03 0.0000000000000000e+00  -4.1195752021636730e-05 3.5488670693857136e-03 0.0000000000000000e+00  -4.3320918699347748e-05 3.5066058824310665e-03 0.0000000000000000e+00  -4.5419992816799258e-05 3.4622324392716733e-03 0.0000000000000000e+00  -4.7491710040058870e-05 3.4157734687971660e-03 0.0000000000000000e+00  -4.9534822501678464e-05 3.3672569561453976e-03 0.0000000000000000e+00  -5.1548099562907406e-05 3.3167121258353342e-03 0.0000000000000000e+00  -5.3530328548865181e-05 3.2641694241763537e-03 0.0000000000000000e+00  -5.5480315485441696e-05 3.2096605009121039e-03 0.0000000000000000e+00  -5.7396885809558846e-05 3.1532181901658663e-03 0.0000000000000000e+00  -5.9278885081264509e-05 3.0948764906598061e-03 0.0000000000000000e+00  -6.1125179680126987e-05 3.0346705452428055e-03 0.0000000000000000e+00  -6.2934657491280459e-05 2.9726366197053013e-03 0.0000000000000000e+00  -6.4706228564876390e-05 2.9088120809502432e-03 0.0000000000000000e+00  -6.6438825784526903e-05 2.8432353744740923e-03 0.0000000000000000e+00  -6.8131405505182413e-05 2.7759460012183415e-03 0.0000000000000000e+00  -6.9782948186646187e-05 2.7069844937652738e-03 0.0000000000000000e+00  -7.1392459001647139e-05 2.6363923919304768e-03 0.0000000000000000e+00  -7.2958968443385071e-05 2.5642122177334642e-03 0.0000000000000000e+00  -7.4481532907169612e-05 2.4904874497962064e-03 0.0000000000000000e+00  -7.5959235267146851e-05 2.4152624971369827e-03 0.0000000000000000e+00  -7.7391185420977419e-05 2.3385826724328122e-03 0.0000000000000000e+00  -7.8776520838565140e-05 2.2604941647166800e-03 0.0000000000000000e+00  -8.0114407082850636e-05 2.1810440115632057e-03 0.0000000000000000e+00  -8.1404038321068590e-05 2.1002800707425576e-03 0.0000000000000000e+00  -8.2644637811464088e-05 2.0182509914010672e-03 0.0000000000000000e+00  -8.3835458387772468e-05 1.9350061847502975e-03 0.0000000000000000e+00  -8.4975782918806207e-05 1.8505957943086787e-03 0.0000000000000000e+00  -8.6064924762637799e-05 1.7650706656832189e-03 0.0000000000000000e+00  -8.7102228196978777e-05 1.6784823159474538e-03 0.0000000000000000e+00  -8.8087068852495034e-05 1.5908829025988720e-03 0.0000000000000000e+00  -8.9018854132474906e-05 1.5023251921408708e-03 0.0000000000000000e+00  -8.9897023637545572e-05 1.4128625282799278e-03 0.0000000000000000e+00  -9.0721049590560731e-05 1.3225487997886014e-03 0.0000000000000000e+00  -9.1490437297678218e-05 1.2314384080245825e-03 0.0000000000000000e+00  -9.2204725650851162e-05 1.1395862341487515e-03 0.0000000000000000e+00  -9.2863487729990233e-05 1.0470476060392623e-03 0.0000000000000000e+00  -9.3466331569903060e-05 9.5387826495454649e-04 0.0000000000000000e+00  -9.4012901254610215e-05 8.6013433196572978e-04 0.0000000000000000e+00  -9.4502878613163111e-05 7.6587227424672485e-04 0.0000000000000000e+00  -9.4935986117403729e-05 6.7114887140766705e-04 0.0000000000000000e+00  -9.5311992296814754e-05 5.7602118248277360e-04 0.0000000000000000e+00  -9.5630722778820807e-05 4.8054651561013102e-04 0.0000000000000000e+00  -9.5892084674648135e-05 3.8478240805951751e-04 0.0000000000000000e+00  -9.6096124028463738e-05 2.8878664572190403e-04 0.0000000000000000e+00  -9.6243164625512204e-05 1.9261743217053920e-04 0.0000000000000000e+00  -9.6334113697999030e-05 9.6334113688126895e-05 0.0000000000000000e+00  -9.6372931349212194e-05 4.8077159433868719e-19 0.0000000000000000e+00  1.9268781124819563e-04 0.0000000000000000e+00 0.0000000000000000e+00  1.9261662168090847e-04 9.6241104049676565e-05 0.0000000000000000e+00  1.9243387238369558e-04 1.9243387235607254e-04 0.0000000000000000e+00  1.9213854108076836e-04 2.8851434013213288e-04 0.0000000000000000e+00  1.9172957616815349e-04 3.8442238111257150e-04 0.0000000000000000e+00  1.9120628911255204e-04 4.8009943270504654e-04 0.0000000000000000e+00  1.9056849150769095e-04 5.7548754982391010e-04 0.0000000000000000e+00  1.8981630464055891e-04 6.7052913523754447e-04 0.0000000000000000e+00  1.8895003778784443e-04 7.6516687278491223e-04 0.0000000000000000e+00  1.8797012901267224e-04 8.5934372274888953e-04 0.0000000000000000e+00  1.8687711692179802e-04 9.5300293918695043e-04 0.0000000000000000e+00  1.8567162648507672e-04 1.0460880961255681e-03 0.0000000000000000e+00  1.8435436137424803e-04 1.1385431176372282e-03 0.0000000000000000e+00  1.8292609947133270e-04 1.2303123096268113e-03 0.0000000000000000e+00  1.8138769001018539e-04 1.3213403923449621e-03 0.0000000000000000e+00  1.7974005160186309e-04 1.4115725331375123e-03 0.0000000000000000e+00  1.7798417074852489e-04 1.5009543791705065e-03 0.0000000000000000e+00  1.7612110063784051e-04 1.5894320899996724e-03 0.0000000000000000e+00  1.7415196009405682e-04 1.6769523699097606e-03 0.0000000000000000e+00  1.7207793262266426e-04 1.7634624999665895e-03 0.0000000000000000e+00  1.6990026549667622e-04 1.8489103697440187e-03 0.0000000000000000e+00  1.6762026886099659e-04 1.9332445086907186e-03 0.0000000000000000e+00  1.6523931483564838e-04 2.0164141171274716e-03 0.0000000000000000e+00  1.6275883661620035e-04 2.0983690968469511e-03 0.0000000000000000e+00  1.601803275