<?xml version="1.0"?>
<VTKFile type="UnstructuredGrid"  version="0.1"  >
<UnstructuredGrid>
<Piece  NumberOfPoints="16641" NumberOfCells="32768">
<Points>
<DataArray  type="Float64"  NumberOfComponents="3"  format="ascii">0 0 0  0.0078125 0 0  0.015625 0 0  0.0234375 0 0  0.03125 0 0  0.0390625 0 0  0.046875 0 0  0.0546875 0 0  0.0625 0 0  0.0703125 0 0  0.078125 0 0  0.0859375 0 0  0.09375 0 0  0.1015625 0 0  0.109375 0 0  0.1171875 0 0  0.125 0 0  0.1328125 0 0  0.140625 0 0  0.1484375 0 0  0.15625 0 0  0.1640625 0 0  0.171875 0 0  0.1796875 0 0  0.1875 0 0  0.1953125 0 0  0.203125 0 0  0.2109375 0 0  0.21875 0 0  0.2265625 0 0  0.234375 0 0  0.2421875 0 0  0.25 0 0  0.2578125 0 0  0.265625 0 0  0.2734375 0 0  0.28125 0 0  0.2890625 0 0  0.296875 0 0  0.3046875 0 0  0.3125 0 0  0.3203125 0 0  0.328125 0 0  0.3359375 0 0  0.34375 0 0  0.3515625 0 0  0.359375 0 0  0.3671875 0 0  0.375 0 0  0.3828125 0 0  0.390625 0 0  0.3984375 0 0  0.40625 0 0  0.4140625 0 0  0.421875 0 0  0.4296875 0 0  0.4375 0 0  0.4453125 0 0  0.453125 0 0  0.4609375 0 0  0.46875 0 0  0.4765625 0 0  0.484375 0 0  0.4921875 0 0  0.5 0 0  0.5078125 0 0  0.515625 0 0  0.5234375 0 0  0.53125 0 0  0.5390625 0 0  0.546875 0 0  0.5546875 0 0  0.5625 0 0  0.5703125 0 0  0.578125 0 0  0.5859375 0 0  0.59375 0 0  0.6015625 0 0  0.609375 0 0  0.6171875 0 0  0.625 0 0  0.6328125 0 0  0.640625 0 0  0.6484375 0 0  0.65625 0 0  0.6640625 0 0  0.671875 0 0  0.6796875 0 0  0.6875 0 0  0.6953125 0 0  0.703125 0 0  0.7109375 0 0  0.71875 0 0  0.7265625 0 0  0.734375 0 0  0.7421875 0 0  0.75 0 0  0.7578125 0 0  0.765625 0 0  0.7734375 0 0  0.78125 0 0  0.7890625 0 0  0.796875 0 0  0.8046875 0 0  0.8125 0 0  0.8203125 0 0  0.828125 0 0  0.8359375 0 0  0.84375 0 0  0.8515625 0 0  0.859375 0 0  0.8671875 0 0  0.875 0 0  0.8828125 0 0  0.890625 0 0  0.8984375 0 0  0.90625 0 0  0.9140625 0 0  0.921875 0 0  0.9296875 0 0  0.9375 0 0  0.9453125 0 0  0.953125 0 0  0.9609375 0 0  0.96875 0 0  0.9765625 0 0  0.984375 0 0  0.9921875 0 0  1 0 0  0 0.0078125 0  0.0078125 0.0078125 0  0.015625 0.0078125 0  0.0234375 0.0078125 0  0.03125 0.0078125 0  0.0390625 0.0078125 0  0.046875 0.0078125 0  0.0546875 0.0078125 0  0.0625 0.0078125 0  0.0703125 0.0078125 0  0.078125 0.0078125 0  0.0859375 0.0078125 0  0.09375 0.0078125 0  0.1015625 0.0078125 0  0.109375 0.0078125 0  0.1171875 0.0078125 0  0.125 0.0078125 0  0.1328125 0.0078125 0  0.140625 0.0078125 0  0.1484375 0.0078125 0  0.15625 0.0078125 0  0.1640625 0.0078125 0  0.171875 0.0078125 0  0.1796875 0.0078125 0  0.1875 0.0078125 0  0.1953125 0.0078125 0  0.203125 0.0078125 0  0.2109375 0.0078125 0  0.21875 0.0078125 0  0.2265625 0.0078125 0  0.234375 0.0078125 0  0.2421875 0.0078125 0  0.25 0.0078125 0  0.2578125 0.0078125 0  0.265625 0.0078125 0  0.2734375 0.0078125 0  0.28125 0.0078125 0  0.2890625 0.0078125 0  0.296875 0.0078125 0  0.3046875 0.0078125 0  0.3125 0.0078125 0  0.3203125 0.0078125 0  0.328125 0.0078125 0  0.3359375 0.0078125 0  0.34375 0.0078125 0  0.3515625 0.0078125 0  0.359375 0.0078125 0  0.3671875 0.0078125 0  0.375 0.0078125 0  0.3828125 0.0078125 0  0.390625 0.0078125 0  0.3984375 0.0078125 0  0.40625 0.0078125 0  0.4140625 0.0078125 0  0.421875 0.0078125 0  0.4296875 0.0078125 0  0.4375 0.0078125 0  0.4453125 0.0078125 0  0.453125 0.0078125 0  0.4609375 0.0078125 0  0.46875 0.0078125 0  0.4765625 0.0078125 0  0.484375 0.0078125 0  0.4921875 0.0078125 0  0.5 0.0078125 0  0.5078125 0.0078125 0  0.515625 0.0078125 0  0.5234375 0.0078125 0  0.53125 0.0078125 0  0.5390625 0.0078125 0  0.546875 0.0078125 0  0.5546875 0.0078125 0  0.5625 0.0078125 0  0.5703125 0.0078125 0  0.578125 0.0078125 0  0.5859375 0.0078125 0  0.59375 0.0078125 0  0.6015625 0.0078125 0  0.609375 0.0078125 0  0.6171875 0.0078125 0  0.625 0.0078125 0  0.6328125 0.0078125 0  0.640625 0.0078125 0  0.6484375 0.0078125 0  0.65625 0.0078125 0  0.6640625 0.0078125 0  0.671875 0.0078125 0  0.6796875 0.0078125 0  0.6875 0.0078125 0  0.6953125 0.0078125 0  0.703125 0.0078125 0  0.7109375 0.0078125 0  0.71875 0.0078125 0  0.7265625 0.0078125 0  0.734375 0.0078125 0  0.7421875 0.0078125 0  0.75 0.0078125 0  0.7578125 0.0078125 0  0.765625 0.0078125 0  0.7734375 0.0078125 0  0.78125 0.0078125 0  0.7890625 0.0078125 0  0.796875 0.0078125 0  0.8046875 0.0078125 0  0.8125 0.0078125 0  0.8203125 0.0078125 0  0.828125 0.0078125 0  0.8359375 0.0078125 0  0.84375 0.0078125 0  0.8515625 0.0078125 0  0.859375 0.0078125 0  0.8671875 0.0078125 0  0.875 0.0078125 0  0.8828125 0.0078125 0  0.890625 0.0078125 0  0.8984375 0.0078125 0  0.90625 0.0078125 0  0.9140625 0.0078125 0  0.921875 0.0078125 0  0.9296875 0.0078125 0  0.9375 0.0078125 0  0.9453125 0.0078125 0  0.953125 0.0078125 0  0.9609375 0.0078125 0  0.96875 0.0078125 0  0.9765625 0.0078125 0  0.984375 0.0078125 0  0.9921875 0.0078125 0  1 0.0078125 0  0 0.015625 0  0.0078125 0.015625 0  0.015625 0.015625 0  0.0234375 0.015625 0  0.03125 0.015625 0  0.0390625 0.015625 0  0.046875 0.015625 0  0.0546875 0.015625 0  0.0625 0.015625 0  0.0703125 0.015625 0  0.078125 0.015625 0  0.0859375 0.015625 0  0.09375 0.015625 0  0.1015625 0.015625 0  0.109375 0.015625 0  0.1171875 0.015625 0  0.125 0.015625 0  0.1328125 0.015625 0  0.140625 0.015625 0  0.1484375 0.015625 0  0.15625 0.015625 0  0.1640625 0.015625 0  0.171875 0.015625 0  0.1796875 0.015625 0  0.1875 0.015625 0  0.1953125 0.015625 0  0.203125 0.015625 0  0.2109375 0.015625 0  0.21875 0.015625 0  0.2265625 0.015625 0  0.234375 0.015625 0  0.2421875 0.015625 0  0.25 0.015625 0  0.2578125 0.015625 0  0.265625 0.015625 0  0.2734375 0.015625 0  0.28125 0.015625 0  0.2890625 0.015625 0  0.296875 0.015625 0  0.3046875 0.015625 0  0.3125 0.015625 0  0.3203125 0.015625 0  0.328125 0.015625 0  0.3359375 0.015625 0  0.34375 0.015625 0  0.3515625 0.015625 0  0.359375 0.015625 0  0.3671875 0.015625 0  0.375 0.015625 0  0.3828125 0.015625 0  0.390625 0.015625 0  0.3984375 0.015625 0  0.40625 0.015625 0  0.4140625 0.015625 0  0.421875 0.015625 0  0.4296875 0.015625 0  0.4375 0.015625 0  0.4453125 0.015625 0  0.453125 0.015625 0  0.4609375 0.015625 0  0.46875 0.015625 0  0.4765625 0.015625 0  0.484375 0.015625 0  0.4921875 0.015625 0  0.5 0.015625 0  0.5078125 0.015625 0  0.515625 0.015625 0  0.5234375 0.015625 0  0.53125 0.015625 0  0.5390625 0.015625 0  0.546875 0.015625 0  0.5546875 0.015625 0  0.5625 0.015625 0  0.5703125 0.015625 0  0.578125 0.015625 0  0.5859375 0.015625 0  0.59375 0.015625 0  0.6015625 0.015625 0  0.609375 0.015625 0  0.6171875 0.015625 0  0.625 0.015625 0  0.6328125 0.015625 0  0.640625 0.015625 0  0.6484375 0.015625 0  0.65625 0.015625 0  0.6640625 0.015625 0  0.671875 0.015625 0  0.6796875 0.015625 0  0.6875 0.015625 0  0.6953125 0.015625 0  0.703125 0.015625 0  0.7109375 0.015625 0  0.71875 0.015625 0  0.7265625 0.015625 0  0.734375 0.015625 0  0.7421875 0.015625 0  0.75 0.015625 0  0.7578125 0.015625 0  0.765625 0.015625 0  0.7734375 0.015625 0  0.78125 0.015625 0  0.7890625 0.015625 0  0.796875 0.015625 0  0.8046875 0.015625 0  0.8125 0.015625 0  0.8203125 0.015625 0  0.828125 0.015625 0  0.8359375 0.015625 0  0.84375 0.015625 0  0.8515625 0.015625 0  0.859375 0.015625 0  0.8671875 0.015625 0  0.875 0.015625 0  0.8828125 0.015625 0  0.890625 0.015625 0  0.8984375 0.015625 0  0.90625 0.015625 0  0.9140625 0.015625 0  0.921875 0.015625 0  0.9296875 0.015625 0  0.9375 0.015625 0  0.9453125 0.015625 0  0.953125 0.015625 0  0.9609375 0.015625 0  0.96875 0.015625 0  0.9765625 0.015625 0  0.984375 0.015625 0  0.9921875 0.015625 0  1 0.015625 0  0 0.0234375 0  0.0078125 0.0234375 0  0.015625 0.0234375 0  0.0234375 0.0234375 0  0.03125 0.0234375 0  0.0390625 0.0234375 0  0.046875 0.0234375 0  0.0546875 0.0234375 0  0.0625 0.0234375 0  0.0703125 0.0234375 0  0.078125 0.0234375 0  0.0859375 0.0234375 0  0.09375 0.0234375 0  0.1015625 0.0234375 0  0.109375 0.0234375 0  0.1171875 0.0234375 0  0.125 0.0234375 0  0.1328125 0.0234375 0  0.140625 0.0234375 0  0.1484375 0.0234375 0  0.15625 0.0234375 0  0.1640625 0.0234375 0  0.171875 0.0234375 0  0.1796875 0.0234375 0  0.1875 0.0234375 0  0.1953125 0.0234375 0  0.203125 0.0234375 0  0.2109375 0.0234375 0  0.21875 0.0234375 0  0.2265625 0.0234375 0  0.234375 0.0234375 0  0.2421875 0.0234375 0  0.25 0.0234375 0  0.2578125 0.0234375 0  0.265625 0.0234375 0  0.2734375 0.0234375 0  0.28125 0.0234375 0  0.2890625 0.0234375 0  0.296875 0.0234375 0  0.3046875 0.0234375 0  0.3125 0.0234375 0  0.3203125 0.0234375 0  0.328125 0.0234375 0  0.3359375 0.0234375 0  0.34375 0.0234375 0  0.3515625 0.0234375 0  0.359375 0.0234375 0  0.3671875 0.0234375 0  0.375 0.0234375 0  0.3828125 0.0234375 0  0.390625 0.0234375 0  0.3984375 0.0234375 0  0.40625 0.0234375 0  0.4140625 0.0234375 0  0.421875 0.0234375 0  0.4296875 0.0234375 0  0.4375 0.0234375 0  0.4453125 0.0234375 0  0.453125 0.0234375 0  0.4609375 0.0234375 0  0.46875 0.0234375 0  0.4765625 0.0234375 0  0.484375 0.0234375 0  0.4921875 0.0234375 0  0.5 0.0234375 0  0.5078125 0.0234375 0  0.515625 0.0234375 0  0.5234375 0.0234375 0  0.53125 0.0234375 0  0.5390625 0.0234375 0  0.546875 0.0234375 0  0.5546875 0.0234375 0  0.5625 0.0234375 0  0.5703125 0.0234375 0  0.578125 0.0234375 0  0.5859375 0.0234375 0  0.59375 0.0234375 0  0.6015625 0.0234375 0  0.609375 0.0234375 0  0.6171875 0.0234375 0  0.625 0.0234375 0  0.6328125 0.0234375 0  0.640625 0.0234375 0  0.6484375 0.0234375 0  0.65625 0.0234375 0  0.6640625 0.0234375 0  0.671875 0.0234375 0  0.6796875 0.0234375 0  0.6875 0.0234375 0  0.6953125 0.0234375 0  0.703125 0.0234375 0  0.7109375 0.0234375 0  0.71875 0.0234375 0  0.7265625 0.0234375 0  0.734375 0.0234375 0  0.7421875 0.0234375 0  0.75 0.0234375 0  0.7578125 0.0234375 0  0.765625 0.0234375 0  0.7734375 0.0234375 0  0.78125 0.0234375 0  0.7890625 0.0234375 0  0.796875 0.0234375 0  0.8046875 0.0234375 0  0.8125 0.0234375 0  0.8203125 0.0234375 0  0.828125 0.0234375 0  0.8359375 0.0234375 0  0.84375 0.0234375 0  0.8515625 0.0234375 0  0.859375 0.0234375 0  0.8671
[...]
<CellData  Scalars="f_7942"> 
<DataArray  type="Float64"  Name="f_7942"  format="ascii">7.4186273999334406e-08   7.4140964285819996e-08   7.4096947696901649e-08   7.4051501867067351e-08   7.3918503485352127e-08   7.3873026231378092e-08   7.3651371337916235e-08   7.3605943096002115e-08   7.3296194869351642e-08   7.3250885504783347e-08   7.2853829791591266e-08   7.2808703706632030e-08   7.2325341854879120e-08   7.2280460256193106e-08   7.1712004281453671e-08   7.1667426239289599e-08   7.1015294698774771e-08   7.0971077633759615e-08   7.0236891580084833e-08   7.0193091459820661e-08   6.9378670201015116e-08   6.9335341583040887e-08   6.8442698122066926e-08   6.8399894114253935e-08   6.7431230207893203e-08   6.7389002385011444e-08   6.6346703195363662e-08   6.6305101494026110e-08   6.5191729823523828e-08   6.5150802428347865e-08   6.3969092539560978e-08   6.3928885768067053e-08   6.2681736795935050e-08   6.2642294986531565e-08   6.1332763954832036e-08   6.1294129360373831e-08   5.9925423817001991e-08   5.9887636505232564e-08   5.8463106792987467e-08   5.8426204554302022e-08   5.6949335735583840e-08   5.6913353998512195e-08   5.5387757453250452e-08   5.5352729207380614e-08   5.3782133924829963e-08   5.3748089651192125e-08   5.2136333236841021e-08   5.2103300845448767e-08   5.0454320265094001e-08   5.0422325039341650e-08   4.8740147123127398e-08   4.8709211671030804e-08   4.6997943400458020e-08   4.6968087612389374e-08   4.5231906214161555e-08   4.5203147227051524e-08   4.3446290097771376e-08   4.3418642265675694e-08   4.1645396751822223e-08   4.1618871622633530e-08   3.9833564680771621e-08   3.9808170979241201e-08   3.8015158741211133e-08   3.7990902358145827e-08   3.6194559626632965e-08   3.6171443614177170e-08   3.4376153313995976e-08   3.4354177887087856e-08   3.2564320497559603e-08   3.2543483041738628e-08   3.0763426035457586e-08   3.0743721120482775e-08   2.8977808434399657e-08   2.8959227834254037e-08   2.7211769397855347e-08   2.7194302116827359e-08   2.5469563462898442e-08   2.5453195767691420e-08   2.3755387750673302e-08   2.3740103208685905e-08   2.2073371855182454e-08   2.2059151378737747e-08   2.0427567894744186e-08   2.0414389791227434e-08   1.8821940750098946e-08   1.8809780778153651e-08   1.7260358512676153e-08   1.7249189943888708e-08   1.5746583166039440e-08   1.5736376852523173e-08   1.4284261522930340e-08   1.4274985970326083e-08   1.2876916439812577e-08   1.2868537885711736e-08   1.1527938329983257e-08   1.1520420827581338e-08   1.0240576995793497e-08   1.0233882502600283e-08   9.0179337995937373e-09   9.0120222709623875e-09   7.8629541922792890e-09   7.8577836797243776e-09   6.7784206174542831e-09   6.7739473712570269e-09   5.7669458082822837e-09   5.7631243844289321e-09   4.8309664931937119e-09   4.8277498642286554e-09   3.9727375255870622e-09   3.9700771952037106e-09   3.1943264517060569e-09   3.1921725728202440e-09   2.4976085297293183e-09   2.4959100257046846e-09   1.8842622121280524e-09   1.8829669008800081e-09   1.3557651021143318e-09   1.3548198229071111e-09   9.1339039397745813e-10   9.1274113644729278e-10   5.5820380584443300e-10   5.5779584107345064e-10   2.9106101227651016e-10   2.9083902554473871e-10   1.1260558286942179e-10   1.1251380780757164e-10   2.3267431842612233e-11   2.3249785625579306e-11   2.3261782335393821e-11   2.3262001625805519e-11   1.1258864791573247e-10   1.1255042521925388e-10   2.9103283254248904e-10   2.9089995264336611e-10   5.5816444899287869e-10   5.5788092515789247e-10   9.1333995449377165e-10   9.1285016409948716e-10   1.3557037010699676e-09   1.3549525203470734e-09   1.8841899968672105e-09   1.8831229344008871e-09   2.4975256734951480e-09   2.4960890022052192e-09   3.1942331531967117e-09   3.1923740404443250e-09   3.9726340084489925e-09   3.9703006439789796e-09   4.8308530054447814e-09   4.8279947267985668e-09   5.7668226216741150e-09   5.7633900368706827e-09   6.7782880267715437e-09   6.7742331338121348e-09   7.8628125145771380e-09   7.8580888176402239e-09   9.0177833733721285e-09   9.0123459952699920e-09   1.0240418180115937e-08   1.0234223970862354e-08   1.1527771503534560e-08   1.1520779144589520e-08   1.2876741999907965e-08   1.2868912104110563e-08   1.4284079884466446e-08   1.4275375090976329e-08   1.5746394760387602e-08   1.5736779824949458e-08   1.7260163786548044e-08   1.7249605666323754e-08   1.8821740164340411e-08   1.8810208097419007e-08   2.0427361923102995e-08   2.0414827502442927e-08   2.2073160983035816e-08   2.2059598224495360e-08   2.3755172473712909e-08   2.3740557878103583e-08   2.5469344285788366e-08   2.5453656894926473e-08   2.7211546832867552e-08   2.7194768279080579e-08   2.8977583000024040e-08   2.8959697549519780e-08   3.0763198255000360e-08   3.0744192844563531e-08   3.2564090897732649e-08   3.2543955164851927e-08   3.4375922423512044e-08   3.4354648729890275e-08   3.6194327974818503e-08   3.6171911423161258e-08   3.8014926856619106e-08   3.7991365300765015e-08   3.9833333089857775e-08   3.9808627138242500e-08   4.1645165977659400e-08   4.1619318990368636e-08   4.3446060658807466e-08   4.3419078737976375e-08   4.5231678623107738e-08   4.5203570597206973e-08   4.6997718163232121e-08   4.6968495565378693e-08   4.8739924737943998e-08   4.8709601778425488e-08   5.0454101221698584e-08   5.0422694755333229e-08   5.2136118015903456e-08   5.2103647504557269e-08   5.3781922997554004e-08   5.3748410468526790e-08   5.5387551281194430e-08   5.5353021282209226e-08   5.6949134770718150e-08   5.6913614322405203e-08   5.8462911478040679e-08   5.8426430024979215e-08   5.9925234586097940e-08   5.9887823947825904e-08   6.1332581234400592e-08   6.1294275557774926e-08   6.2681561005988987e-08   6.2642396720807985e-08   6.3968924095228272e-08   6.3928939875292117e-08   6.5191569136885756e-08   6.5150805869077224e-08   6.6346550677525813e-08   6.6305051441984105e-08   6.7431086271224871e-08   6.7388896336638847e-08   6.8442563182512680e-08   6.8399730021198088e-08   6.9378544680308874e-08   6.9335118009656106e-08   7.0236775907692921e-08   7.0192807766879821e-08   7.1015189313299357e-08   7.0970734188437337e-08   7.1711909631185409e-08   7.1667024649984917e-08   7.2325258397061666e-08   7.2280003629187687e-08   7.2853757989945898e-08   7.2808196920066519e-08   7.3296135189163166e-08   7.3250335497948205e-08   7.3651324237854488e-08   7.3605359189759264e-08   7.3918469404667245e-08   7.3872420580791251e-08   7.4096927035225485e-08   7.4050890529661789e-08   7.4186267081038146e-08   7.4140370840806083e-08   7.4141025199201106e-08   7.4006620187049538e-08   7.4051738647727057e-08   7.3917267862659000e-08   7.3873546641593759e-08   7.3739182882428569e-08   7.3606854318667855e-08   7.3472769592128726e-08   7.3252293888311858e-08   7.3118657351660704e-08   7.2810714503049821e-08   7.2677692563722521e-08   7.2283177359667917e-08   7.2150933814198963e-08   7.1670951927370252e-08   7.1539647962126097e-08   7.0975512312398102e-08   7.0845306370272825e-08   7.0198533412974678e-08   7.0069580961459253e-08   6.9341886727591624e-08   6.9214339964036082e-08   6.8407635760941232e-08   6.8281643282513060e-08   6.7398031006068487e-08   6.7273737463649592e-08   6.6315504498150264e-08   6.6193050246759582e-08   6.5162663943604359e-08   6.5042184697784577e-08   6.3942286433280351e-08   6.3823912932464268e-08   6.2657311751677942e-08   6.2541169438956648e-08   6.1310835296451866e-08   6.1197044012682455e-08   5.9906100624046626e-08   5.9794774318407203e-08   5.8446491638563607e-08   5.8337738096298056e-08   5.6935524442623633e-08   5.6829445030368929e-08   5.5376838869260126e-08   5.5273528297927842e-08   5.3774189715435619e-08   5.3673735821123625e-08   5.2131437698120766e-08   5.2033921240678833e-08   5.0452540154663247e-08   5.0358034634377952e-08   4.8741541510185517e-08   4.8650113002311892e-08   4.7002563534654519e-08   4.6914270542246835e-08   4.5239795413440353e-08   4.5154688738077818e-08   4.3457483655243732e-08   4.3375606286296015e-08   4.1659921861571588e-08   4.1581308883738206e-08   3.9851440382850765e-08   3.9776118902263283e-08   3.8036395885774812e-08   3.7964384974643197e-08   3.6219160857151682e-08   3.6150471517192333e-08   3.4404113069652076e-08   3.4338748214320716e-08   3.2595625034997786e-08   3.2533579490316874e-08   3.0798053469295775e-08   3.0739313993785136e-08   2.9015728797000199e-08   2.8960274120240030e-08   2.7252944717951877e-08   2.7200745597842413e-08   2.5513947862883791e-08   2.5464967161763523e-08   2.3802927562548301e-08   2.3757120341516879e-08   2.2124005754732080e-08   2.2081319386495516e-08   2.0481227053687406e-08   2.0441601353428670e-08   1.8878549006124910e-08   1.8841916380068981e-08   1.7319832556506954e-08   1.7286118168122849e-08   1.5808832745627723e-08   1.5777954698892966e-08   1.4349189663985139e-08   1.4321059203329960e-08   1.2944419682298368e-08   1.2918941408845836e-08   1.1597906980019256e-08   1.1574979083598005e-08   1.0312895392371769e-08   1.0292409898787885e-08   9.0924805954546448e-09   9.0743236283711730e-09   7.9396026484523932e-09   7.9236547054083545e-09   6.8570389104994885e-09   6.8431751523071201e-09   5.8473973497789065e-09   5.8354879026417368e-09   4.9131102605484258e-09   4.9030205302354309e-09   4.0564284034503872e-09   4.0480194007319552e-09   3.2794155831963016e-09   3.2725442597931870e-09   2.5839436765771836e-09   2.5784632708089050e-09   1.9716881228753573e-09   1.9674485142719677e-09   1.4441238876192221e-09   1.4409719594091162e-09   1.0025219091366025e-09   1.0003019180779801e-09   6.4794603675483021e-10   6.4649998917336445e-10   3.8125046784685432e-10   3.8041850107947272e-10   2.0307768998164123e-10   2.0269845828085094e-10   1.1385693307056444e-10   1.1376799707383320e-10   1.1380313530221712e-10   1.1384135410169389e-10   2.0291642529491722e-10   2.0291835019558735e-10   3.8098212177302457e-10   3.8078439074329107e-10   6.4757125072905875e-10   6.4701098265134583e-10   1.0020415788232688e-09   1.0009567665589850e-09   1.4435391605627898e-09   1.4417690618895674e-09   1.9710003954748039e-09   1.9683859209697887e-09   2.5831545904069643e-09   2.5795386873273750e-09   3.2785270206827696e-09   3.2737550518905632e-09   4.0554424828168475e-09   4.0493625999216877e-09   4.9120293301412214e-09   4.9044928398295070e-09   5.8462239817656423e-09   5.8370857045324092e-09   6.8557758938013699e-09   6.8448945142087607e-09   7.9382529811113730e-09   7.9254913886221201e-09   9.0910474762850052e-09   9.0762730959931246e-09   1.0311382211953785e-08   1.0294467324286955e-08   1.1596317311034524e-08   1.1577139359732341e-08   1.2942757269210810e-08   1.2921199156714913e-08   1.4347458411904280e-08   1.4323408781693289e-08   1.5807036708722283e-08   1.5780390213462217e-08   1.7317975925516322e-08   1.7288633480869341e-08   1.8876636095233788e-08   1.8844505118316787e-08   2.0479262286788874e-08   2.0444256918894435e-08   2.2121993650749383e-08   2.2084034963701461e-08   2.3800872720267278e-08   2.3759888906006312e-08   2.5511854944893513e-08   2.5467781487543945e-08   2.7250818433800114e-08   2.7203598264274810e-08   2.9013573885831967e-08   2.8963157518075506e-08   3.0795874681524800e-08   3.0742220330410125e-08   3.2593427113418115e-08   3.2536500793923566e-08   3.4401900729832427e-08   3.4341676337218672e-08   3.6216938767134188e-08   3.6153398138045129e-08   3.8034168645471633e-08   3.7967301599747996e-08   3.9849212502682836e-08   3.9779016865981862e-08   4.1657697741181874e-08   4.1584179348255516e-08   4.3455267561924347e-08   4.3378440240874890e-08   4.5237591460875017e-08   4.5157476998406964e-08   4.7000375662206362e-08   4.6917003750191889e-08   4.8739373463209940e-08   4.8652781627125438e-08   5.0450395466374748e-08   5.0360628975815371e-08   5.2129319673658917e-08   5.2036431435858616e-08   5.3772101419073226e-08   5.3676151855943021e-08   5.5374783115587027e-08   5.5275840025471935e-08   5.6933503793043612e-08   5.6831642198134070e-08   5.8444508404330642e-08   5.8339810385078308e-08   5.9904156877601270e-08   5.9796711395696166e-08   6.1308932892774369e-08   6.1198835604549690e-08   6.2655452361707830e-08   6.2542805423972919e-08   6.3940471591733343e-08   6.3825383462542475e-08   6.5160895113408037e-08   6.5043480350464305e-08   6.6313783153997619e-08   6.6194162214079460e-08   6.7396358739622451e-08   6.7274657782581825e-08   6.8406014409575550e-08   6.8282365111621224e-08   6.9340318528453334e-08   6.9214857909843867e-08   7.0197021183180655e-08   7.0069891456934114e-08   7.0974059654905956e-08   7.0845408104920338e-08   7.1669563460420649e-08   7.1539542360167300e-08   7.2281858965909018e-08   7.2150625552905890e-08   7.2809473592729035e-08   7.2677190120305159e-08   7.3251139673090920e-08   7.3117973567124042e-08   7.3605798109951189e-08   7.3471922254472447e-08   7.3872602271706307e-08   7.3738195374282248e-08   7.4050923493255586e-08   7.3916170001125885e-08   7.4140363737843592e-08   7.4005449309998515e-08   7.4006788515462331e-08   7.3783562917265286e-08   7.3917880071929722e-08   7.3694516090283631e-08   7.3740452682042294e-08   7.3517217057281029e-08   7.3474909164769337e-08   7.3252073251424022e-08   7.3121876856158177e-08   7.2899712061814862e-08   7.2682199633474033e-08   7.2460975871565131e-08   7.2156933055574120e-08   7.1936917913516968e-08   7.1547340456711392e-08   7.1328798530147530e-08   7.0854889183841648e-08   7.0638081445086104e-08   7.0081246661865692e-08   6.9866429831990522e-08   6.9228276149788444e-08   6.9015702070034463e-08   6.8298032123509928e-08   6.8087947130057264e-08   6.7292755255402235e-08   6.7085399563027882e-08   6.6214866979294182e-08   6.6010474079258308e-08   6.5066963640329480e-08   6.4865759716440722e-08   6.3851810234945136e-08   6.3654013601044669e-08   6.2572333751255613e-08   6.2378154312101089e-08   6.1231616122561934e-08   6.1041254859501158e-08   5.9832886808928496e-08   5.9646535291570087e-08   5.8379515023519099e-08   5.8197354947933413e-08   5.6875001622047333e-08   5.6697204376032495e-08   5.5322970673913133e-08   5.5149696930002084e-08   5.3727160736057940e-08   5.3558560072204637e-08   5.2091415849576650e-08   5.1927626398345017e-08   5.0419676281619066e-08   5.0260824407868069e-08   4.8715969034501688e-08   4.8562169042183259e-08   4.6984398145367060e-08   4.6835752013505408e-08   4.5229134799281469e-08   4.5085731947923374e-08   4.3454407280662409e-08   4.3316324366567828e-08   4.1664490786227164e-08   4.1531791529152256e-08   3.9863697125060264e-08   3.9736432164608199e-08   3.8056364330033137e-08   3.7934571113437293e-08   3.6246846206028434e-08   3.6130548907128806e-08   3.4439501840109094e-08   3.4328711309604895e-08   3.2638685098879173e-08   3.2533398845969827e-08   3.0848734138377564e-08   3.0748936344031953e-08   2.9073960951983724e-08   2.8979622513504590e-08   2.7318640981224505e-08   2.7229719588422697e-08   2.5587002814941112e-08   2.5503443057295339e-08   2.3883218001075933e-08   2.3804951506246362e-08   2.2211390996262899e-08   2.2138336599051883e-08   2.0575549276879017e-08   2.0507613218780669e-08   1.8979633635830305e-08   1.8916709794367764e-08   1.7427488687980189e-08   1.7369458835645279e-08   1.5922853607702563e-08   1.5869587699501450e-08   1.4469353120148980e-08   1.4420709609501709e-08   1.3070488768552391e-08   1.3026314950606693e-08   1.1729630478231713e-08   1.1689762859796133e-08   1.0450008437791297e-08   1.0414273133040089e-08   9.2347053168496691e-09   9.2029184680123370e-09   8.0866488395200961e-09   8.0586170612139890e-09   7.0086047308049602e-09   6.9841255774355975e-09   6.0031700535974396e-09   5.9820325082868267e-09   5.0727669519030352e-09   5.0547519360563040e-09   4.2196368154970782e-09   4.2045177176517427e-09   3.4458348801083049e-09   3.4333781028840932e-09   2.7532252759925499e-09   2.7431907998119328e-09   2.1434765370288359e-09   2.1356184992058996e-09   1.6180575808967426e-09   1.6121248688183282e-09   1.1782341703146565e-09   1.1739710271663173e-09   8.2506586359222867e-10   8.2221250528063807e-10   5.5940346199911838e-10   5.5769670371305271e-10   3.8188696005197487e-10   3.8106085101081950e-10   2.9294400365646805e-10   2.9273046848541674e-10   2.9278885980990357e-10   2.9291834503095835e-10   3.8142190038061103e-10   3.8162402440794859e-10   5.5862960114540624e-10   5.5863380630028611e-10   8.2398505614798872e-10   8.2352126105713547e-10   1.1768490060990605e-09   1.1756482569352469e-09   1.6163713783478898e-09   1.6141664973296295e-09   2.1414933347320281e-09   2.1380195643530952e-09   2.7509498223490560e-09   2.7459454637164489e-09   3.4432726210800683e-09   3.4364796649098838e-09   4.2167938806486707e-09   4.2079586292859834e-09   5.0696501384375224e-09   5.0585238175580728e-09   5.9997868087124409e-09   5.9861261670368810e-09   7.0049631321554696e-09   6.9885310278662722e-09   8.0827575739077530e-09   8.0633235463109438e-09   9.2305736571420220e-09   9.2079144821795217e-09   1.0445646218048508e-08   1.0419546446288356e-08   1.1725048067125673e-08   1.1695300543041703e-08   1.3065697040913437e-08   1.3032103401995825e-08   1.4464363426907139e-08   1.4426734581590778e-08   1.5917677743982598e-08   1.5875834327126268e-08   1.7422138859527795e-08   1.7375911664348419e-08   1.8974122423619124e-08   1.8923352809036422e-08   2.0569889600168652e-08   2.0514429872515515e-08   2.2205596073650482e-08   2.2145309841941975e-08   2.3877301310100578e-08   2.3812063813848677e-08   2.5580978049750257e-08   2.5510676458672138e-08   2.7312522008681344e-08   2.7237055693326168e-08   2.9067761766018282e-08   2.8987042538953744e-08   3.0842468812778369e-08   3.0756421139574631e-08   3.2632367738381138e-08   3.2540928917893424e-08   3.4433146530127496e-08   3.4336266843644759e-08   3.6240466960959178e-08   3.6138109790000678e-08   3.8049975040390636e-08   3.7942116952806299e-08   3.9857311503696223e-08   3.9743942307924716e-08   4.1658122313962748e-08   4.1539245081285412e-08   4.3448069151667528e-08   4.3323700206863937e-08   4.5222839866931974e-08   4.5093008747108664e-08   4.6978158869070246e-08   4.6842908251234381e-08   4.8709797428695202e-08   4.8569183026297936e-08   5.0413583867555345e-08   5.0267674296769566e-08   5.2085413611913921e-08   5.1934290228211786e-08   5.3721259085220919e-08   5.3565015791383880e-08   5.5317179416823821e-08   5.5155922442998181e-08   5.6869329943204519e-08   5.6703177600934177e-08   5.8373971479452972e-08   5.8203053890732795e-08   5.9827479339001208e-08   5.9651938142229680e-08   6.1226352080207219e-08   6.1046340115149529e-08   6.2567219959352594e-08   6.2382900933300796e-08   6.3846853070253626e-08   6.3658401208050455e-08   6.5062169151558012e-08   6.4869768832370731e-08   6.6210241043930539e-08   6.6014086428031231e-08   6.7288303780210095e-08   6.7088598429297021e-08   6.8293761293184569e-08   6.8090717788055555e-08   6.9224192726994740e-08   6.9018032286643467e-08   7.0077358340678452e-08   6.9868310446892624e-08   7.0851204995541913e-08   7.0639507026762576e-08   7.1543871223695899e-08   7.1329768100776707e-08   7.2153691884500354e-08   7.1937435728161595e-08   7.2679202434853537e-08   7.2461052226918862e-08   7.3119142877338416e-08   7.2899364098822004e-08   7.3472461536962365e-08   7.3251325702353301e-08   7.3738319024989021e-08   7.3516102867213303e-08   7.3916093284786140e-08   7.3693076768262597e-08   7.4005387821560305e-08   7.3781848150178779e-08   7.3783891850435832e-08   7.3472316104952219e-08   7.3695662919127632e-08   7.3383754220174791e-08   7.3519500600820625e-08   7.3207627940049698e-08   7.3255809641494460e-08   7.2944347339357208e-08   7.2905213986757022e-08   7.2594537670471666e-08   7.2468551827146795e-08   7.2159036301363711e-08   7.1946871459457403e-08   7.1638889315296042e-08   7.1341427555223272e-08   7.1035348046862011e-08   7.0653677443915116e-08   7.0349865468816197e-08   6.9885277196240718e-08   6.9584092324294411e-08   6.9038077396452223e-08   6.8739872930894071e-08   6.8114118547424293e-08   6.7819240612351104e-08   6.7115626079942305e-08   6.6824412734567660e-08   6.6045004954448327e-08   6.5757785335376356e-08   6.4904833853