<?xml version="1.0"?>
<VTKFile type="UnstructuredGrid"  version="0.1"  >
<UnstructuredGrid>
<Piece  NumberOfPoints="16641" NumberOfCells="32768">
<Points>
<DataArray  type="Float64"  NumberOfComponents="3"  format="ascii">0 0 0  0.0078125 0 0  0.015625 0 0  0.0234375 0 0  0.03125 0 0  0.0390625 0 0  0.046875 0 0  0.0546875 0 0  0.0625 0 0  0.0703125 0 0  0.078125 0 0  0.0859375 0 0  0.09375 0 0  0.1015625 0 0  0.109375 0 0  0.1171875 0 0  0.125 0 0  0.1328125 0 0  0.140625 0 0  0.1484375 0 0  0.15625 0 0  0.1640625 0 0  0.171875 0 0  0.1796875 0 0  0.1875 0 0  0.1953125 0 0  0.203125 0 0  0.2109375 0 0  0.21875 0 0  0.2265625 0 0  0.234375 0 0  0.2421875 0 0  0.25 0 0  0.2578125 0 0  0.265625 0 0  0.2734375 0 0  0.28125 0 0  0.2890625 0 0  0.296875 0 0  0.3046875 0 0  0.3125 0 0  0.3203125 0 0  0.328125 0 0  0.3359375 0 0  0.34375 0 0  0.3515625 0 0  0.359375 0 0  0.3671875 0 0  0.375 0 0  0.3828125 0 0  0.390625 0 0  0.3984375 0 0  0.40625 0 0  0.4140625 0 0  0.421875 0 0  0.4296875 0 0  0.4375 0 0  0.4453125 0 0  0.453125 0 0  0.4609375 0 0  0.46875 0 0  0.4765625 0 0  0.484375 0 0  0.4921875 0 0  0.5 0 0  0.5078125 0 0  0.515625 0 0  0.5234375 0 0  0.53125 0 0  0.5390625 0 0  0.546875 0 0  0.5546875 0 0  0.5625 0 0  0.5703125 0 0  0.578125 0 0  0.5859375 0 0  0.59375 0 0  0.6015625 0 0  0.609375 0 0  0.6171875 0 0  0.625 0 0  0.6328125 0 0  0.640625 0 0  0.6484375 0 0  0.65625 0 0  0.6640625 0 0  0.671875 0 0  0.6796875 0 0  0.6875 0 0  0.6953125 0 0  0.703125 0 0  0.7109375 0 0  0.71875 0 0  0.7265625 0 0  0.734375 0 0  0.7421875 0 0  0.75 0 0  0.7578125 0 0  0.765625 0 0  0.7734375 0 0  0.78125 0 0  0.7890625 0 0  0.796875 0 0  0.8046875 0 0  0.8125 0 0  0.8203125 0 0  0.828125 0 0  0.8359375 0 0  0.84375 0 0  0.8515625 0 0  0.859375 0 0  0.8671875 0 0  0.875 0 0  0.8828125 0 0  0.890625 0 0  0.8984375 0 0  0.90625 0 0  0.9140625 0 0  0.921875 0 0  0.9296875 0 0  0.9375 0 0  0.9453125 0 0  0.953125 0 0  0.9609375 0 0  0.96875 0 0  0.9765625 0 0  0.984375 0 0  0.9921875 0 0  1 0 0  0 0.0078125 0  0.0078125 0.0078125 0  0.015625 0.0078125 0  0.0234375 0.0078125 0  0.03125 0.0078125 0  0.0390625 0.0078125 0  0.046875 0.0078125 0  0.0546875 0.0078125 0  0.0625 0.0078125 0  0.0703125 0.0078125 0  0.078125 0.0078125 0  0.0859375 0.0078125 0  0.09375 0.0078125 0  0.1015625 0.0078125 0  0.109375 0.0078125 0  0.1171875 0.0078125 0  0.125 0.0078125 0  0.1328125 0.0078125 0  0.140625 0.0078125 0  0.1484375 0.0078125 0  0.15625 0.0078125 0  0.1640625 0.0078125 0  0.171875 0.0078125 0  0.1796875 0.0078125 0  0.1875 0.0078125 0  0.1953125 0.0078125 0  0.203125 0.0078125 0  0.2109375 0.0078125 0  0.21875 0.0078125 0  0.2265625 0.0078125 0  0.234375 0.0078125 0  0.2421875 0.0078125 0  0.25 0.0078125 0  0.2578125 0.0078125 0  0.265625 0.0078125 0  0.2734375 0.0078125 0  0.28125 0.0078125 0  0.2890625 0.0078125 0  0.296875 0.0078125 0  0.3046875 0.0078125 0  0.3125 0.0078125 0  0.3203125 0.0078125 0  0.328125 0.0078125 0  0.3359375 0.0078125 0  0.34375 0.0078125 0  0.3515625 0.0078125 0  0.359375 0.0078125 0  0.3671875 0.0078125 0  0.375 0.0078125 0  0.3828125 0.0078125 0  0.390625 0.0078125 0  0.3984375 0.0078125 0  0.40625 0.0078125 0  0.4140625 0.0078125 0  0.421875 0.0078125 0  0.4296875 0.0078125 0  0.4375 0.0078125 0  0.4453125 0.0078125 0  0.453125 0.0078125 0  0.4609375 0.0078125 0  0.46875 0.0078125 0  0.4765625 0.0078125 0  0.484375 0.0078125 0  0.4921875 0.0078125 0  0.5 0.0078125 0  0.5078125 0.0078125 0  0.515625 0.0078125 0  0.5234375 0.0078125 0  0.53125 0.0078125 0  0.5390625 0.0078125 0  0.546875 0.0078125 0  0.5546875 0.0078125 0  0.5625 0.0078125 0  0.5703125 0.0078125 0  0.578125 0.0078125 0  0.5859375 0.0078125 0  0.59375 0.0078125 0  0.6015625 0.0078125 0  0.609375 0.0078125 0  0.6171875 0.0078125 0  0.625 0.0078125 0  0.6328125 0.0078125 0  0.640625 0.0078125 0  0.6484375 0.0078125 0  0.65625 0.0078125 0  0.6640625 0.0078125 0  0.671875 0.0078125 0  0.6796875 0.0078125 0  0.6875 0.0078125 0  0.6953125 0.0078125 0  0.703125 0.0078125 0  0.7109375 0.0078125 0  0.71875 0.0078125 0  0.7265625 0.0078125 0  0.734375 0.0078125 0  0.7421875 0.0078125 0  0.75 0.0078125 0  0.7578125 0.0078125 0  0.765625 0.0078125 0  0.7734375 0.0078125 0  0.78125 0.0078125 0  0.7890625 0.0078125 0  0.796875 0.0078125 0  0.8046875 0.0078125 0  0.8125 0.0078125 0  0.8203125 0.0078125 0  0.828125 0.0078125 0  0.8359375 0.0078125 0  0.84375 0.0078125 0  0.8515625 0.0078125 0  0.859375 0.0078125 0  0.8671875 0.0078125 0  0.875 0.0078125 0  0.8828125 0.0078125 0  0.890625 0.0078125 0  0.8984375 0.0078125 0  0.90625 0.0078125 0  0.9140625 0.0078125 0  0.921875 0.0078125 0  0.9296875 0.0078125 0  0.9375 0.0078125 0  0.9453125 0.0078125 0  0.953125 0.0078125 0  0.9609375 0.0078125 0  0.96875 0.0078125 0  0.9765625 0.0078125 0  0.984375 0.0078125 0  0.9921875 0.0078125 0  1 0.0078125 0  0 0.015625 0  0.0078125 0.015625 0  0.015625 0.015625 0  0.0234375 0.015625 0  0.03125 0.015625 0  0.0390625 0.015625 0  0.046875 0.015625 0  0.0546875 0.015625 0  0.0625 0.015625 0  0.0703125 0.015625 0  0.078125 0.015625 0  0.0859375 0.015625 0  0.09375 0.015625 0  0.1015625 0.015625 0  0.109375 0.015625 0  0.1171875 0.015625 0  0.125 0.015625 0  0.1328125 0.015625 0  0.140625 0.015625 0  0.1484375 0.015625 0  0.15625 0.015625 0  0.1640625 0.015625 0  0.171875 0.015625 0  0.1796875 0.015625 0  0.1875 0.015625 0  0.1953125 0.015625 0  0.203125 0.015625 0  0.2109375 0.015625 0  0.21875 0.015625 0  0.2265625 0.015625 0  0.234375 0.015625 0  0.2421875 0.015625 0  0.25 0.015625 0  0.2578125 0.015625 0  0.265625 0.015625 0  0.2734375 0.015625 0  0.28125 0.015625 0  0.2890625 0.015625 0  0.296875 0.015625 0  0.3046875 0.015625 0  0.3125 0.015625 0  0.3203125 0.015625 0  0.328125 0.015625 0  0.3359375 0.015625 0  0.34375 0.015625 0  0.3515625 0.015625 0  0.359375 0.015625 0  0.3671875 0.015625 0  0.375 0.015625 0  0.3828125 0.015625 0  0.390625 0.015625 0  0.3984375 0.015625 0  0.40625 0.015625 0  0.4140625 0.015625 0  0.421875 0.015625 0  0.4296875 0.015625 0  0.4375 0.015625 0  0.4453125 0.015625 0  0.453125 0.015625 0  0.4609375 0.015625 0  0.46875 0.015625 0  0.4765625 0.015625 0  0.484375 0.015625 0  0.4921875 0.015625 0  0.5 0.015625 0  0.5078125 0.015625 0  0.515625 0.015625 0  0.5234375 0.015625 0  0.53125 0.015625 0  0.5390625 0.015625 0  0.546875 0.015625 0  0.5546875 0.015625 0  0.5625 0.015625 0  0.5703125 0.015625 0  0.578125 0.015625 0  0.5859375 0.015625 0  0.59375 0.015625 0  0.6015625 0.015625 0  0.609375 0.015625 0  0.6171875 0.015625 0  0.625 0.015625 0  0.6328125 0.015625 0  0.640625 0.015625 0  0.6484375 0.015625 0  0.65625 0.015625 0  0.6640625 0.015625 0  0.671875 0.015625 0  0.6796875 0.015625 0  0.6875 0.015625 0  0.6953125 0.015625 0  0.703125 0.015625 0  0.7109375 0.015625 0  0.71875 0.015625 0  0.7265625 0.015625 0  0.734375 0.015625 0  0.7421875 0.015625 0  0.75 0.015625 0  0.7578125 0.015625 0  0.765625 0.015625 0  0.7734375 0.015625 0  0.78125 0.015625 0  0.7890625 0.015625 0  0.796875 0.015625 0  0.8046875 0.015625 0  0.8125 0.015625 0  0.8203125 0.015625 0  0.828125 0.015625 0  0.8359375 0.015625 0  0.84375 0.015625 0  0.8515625 0.015625 0  0.859375 0.015625 0  0.8671875 0.015625 0  0.875 0.015625 0  0.8828125 0.015625 0  0.890625 0.015625 0  0.8984375 0.015625 0  0.90625 0.015625 0  0.9140625 0.015625 0  0.921875 0.015625 0  0.9296875 0.015625 0  0.9375 0.015625 0  0.9453125 0.015625 0  0.953125 0.015625 0  0.9609375 0.015625 0  0.96875 0.015625 0  0.9765625 0.015625 0  0.984375 0.015625 0  0.9921875 0.015625 0  1 0.015625 0  0 0.0234375 0  0.0078125 0.0234375 0  0.015625 0.0234375 0  0.0234375 0.0234375 0  0.03125 0.0234375 0  0.0390625 0.0234375 0  0.046875 0.0234375 0  0.0546875 0.0234375 0  0.0625 0.0234375 0  0.0703125 0.0234375 0  0.078125 0.0234375 0  0.0859375 0.0234375 0  0.09375 0.0234375 0  0.1015625 0.0234375 0  0.109375 0.0234375 0  0.1171875 0.0234375 0  0.125 0.0234375 0  0.1328125 0.0234375 0  0.140625 0.0234375 0  0.1484375 0.0234375 0  0.15625 0.0234375 0  0.1640625 0.0234375 0  0.171875 0.0234375 0  0.1796875 0.0234375 0  0.1875 0.0234375 0  0.1953125 0.0234375 0  0.203125 0.0234375 0  0.2109375 0.0234375 0  0.21875 0.0234375 0  0.2265625 0.0234375 0  0.234375 0.0234375 0  0.2421875 0.0234375 0  0.25 0.0234375 0  0.2578125 0.0234375 0  0.265625 0.0234375 0  0.2734375 0.0234375 0  0.28125 0.0234375 0  0.2890625 0.0234375 0  0.296875 0.0234375 0  0.3046875 0.0234375 0  0.3125 0.0234375 0  0.3203125 0.0234375 0  0.328125 0.0234375 0  0.3359375 0.0234375 0  0.34375 0.0234375 0  0.3515625 0.0234375 0  0.359375 0.0234375 0  0.3671875 0.0234375 0  0.375 0.0234375 0  0.3828125 0.0234375 0  0.390625 0.0234375 0  0.3984375 0.0234375 0  0.40625 0.0234375 0  0.4140625 0.0234375 0  0.421875 0.0234375 0  0.4296875 0.0234375 0  0.4375 0.0234375 0  0.4453125 0.0234375 0  0.453125 0.0234375 0  0.4609375 0.0234375 0  0.46875 0.0234375 0  0.4765625 0.0234375 0  0.484375 0.0234375 0  0.4921875 0.0234375 0  0.5 0.0234375 0  0.5078125 0.0234375 0  0.515625 0.0234375 0  0.5234375 0.0234375 0  0.53125 0.0234375 0  0.5390625 0.0234375 0  0.546875 0.0234375 0  0.5546875 0.0234375 0  0.5625 0.0234375 0  0.5703125 0.0234375 0  0.578125 0.0234375 0  0.5859375 0.0234375 0  0.59375 0.0234375 0  0.6015625 0.0234375 0  0.609375 0.0234375 0  0.6171875 0.0234375 0  0.625 0.0234375 0  0.6328125 0.0234375 0  0.640625 0.0234375 0  0.6484375 0.0234375 0  0.65625 0.0234375 0  0.6640625 0.0234375 0  0.671875 0.0234375 0  0.6796875 0.0234375 0  0.6875 0.0234375 0  0.6953125 0.0234375 0  0.703125 0.0234375 0  0.7109375 0.0234375 0  0.71875 0.0234375 0  0.7265625 0.0234375 0  0.734375 0.0234375 0  0.7421875 0.0234375 0  0.75 0.0234375 0  0.7578125 0.0234375 0  0.765625 0.0234375 0  0.7734375 0.0234375 0  0.78125 0.0234375 0  0.7890625 0.0234375 0  0.796875 0.0234375 0  0.8046875 0.0234375 0  0.8125 0.0234375 0  0.8203125 0.0234375 0  0.828125 0.0234375 0  0.8359375 0.0234375 0  0.84375 0.0234375 0  0.8515625 0.0234375 0  0.859375 0.0234375 0  0.8671
[...]
<CellData  Scalars="f_34347"> 
<DataArray  type="Float64"  Name="f_34347"  format="ascii">1.8575199735452198e-08   1.8561851359649173e-08   1.8552835651723797e-08   1.8539503312741809e-08   1.8508158958889035e-08   1.8494857972465413e-08   1.8441277283308491e-08   1.8428023183540924e-08   1.8352351745488564e-08   1.8339160084750965e-08   1.8241596571825549e-08   1.8228482823111590e-08   1.8109278578460713e-08   1.8096258070290581e-08   1.7955716528464128e-08   1.7942804393563881e-08   1.7781280363884357e-08   1.7768491494620448e-08   1.7586390314508635e-08   1.7573739322111372e-08   1.7371515885480649e-08   1.7359017061704943e-08   1.7137174726210357e-08   1.7124842006799966e-08   1.6883931383302921e-08   1.6871778312941599e-08   1.6612395940507838e-08   1.6600435639124842e-08   1.6323222548968367e-08   1.6311467679332768e-08   1.6017107851306514e-08   1.6005570587912780e-08   1.5694789303343950e-08   1.5683481302603579e-08   1.5357043397502626e-08   1.5345975769274197e-08   1.5004683792159505e-08   1.4993867072670800e-08   1.4638559351468746e-08   1.4628003477667826e-08   1.4259552100367948e-08   1.4249266385758919e-08   1.3868575099699649e-08   1.3858568211705479e-08   1.3466570246562797e-08   1.3456850185473277e-08   1.3054506005196066e-08   1.3045080084737713e-08   1.2633375073859306e-08   1.2624249903435307e-08   1.2204191993331538e-08   1.2195373461967406e-08   1.1767990702791806e-08   1.1759483964823948e-08   1.1325822048964170e-08   1.1317631511512113e-08   1.0878751254532009e-08   1.0870880566773197e-08   1.0427855351921766e-08   1.0420307396192814e-08   9.9742205886327083e-09   9.9669974733906453e-09   9.5189398103696484e-09   9.5120428650162371e-09   9.0631098282776971e-09   9.0565395998659423e-09   8.6078287766271466e-09   8.6015850284486073e-09   8.1541934673067834e-09   8.1482751793795185e-09   7.7032967475077220e-09   7.6977021189478456e-09   7.2562248669535054e-09   7.2509513202292702e-09   6.8140548610293276e-09   6.8090990480893485e-09   6.3778519561060960e-09   6.3732097663664617e-09   5.9486670033133222e-09   5.9443335734835829e-09   5.5275339469467410e-09   5.5235036726680825e-09   5.1154673336018457e-09   5.1117338828759511e-09   4.7134598680406660e-09   4.7100161964093081e-09   4.3224800216778807e-09   4.3193183891244000e-09   3.9434696994451216e-09   3.9405816889703714e-09   3.5773419706580324e-09   3.5747185084894003e-09   3.2249788693513724e-09   3.2226102467360491e-09   2.8872292693785438e-09   2.8851051659079801e-09   2.5649068393997105e-09   2.5630163478120276e-09   2.2587880826800221e-09   2.2571197350707995e-09   1.9696104664247918e-09   1.9681522618160331e-09   1.6980706451539991e-09   1.6968100783499624e-09   1.4448227823993196e-09   1.4437468740539473e-09   1.2104769747658165e-09   1.2095723025982557e-09   9.9559778215412989e-10   9.9485051322956616e-10   8.0070286768488101e-10   8.0009879169027094e-10   6.2626175060193479e-10   6.2578631403008057e-10   4.7269467515802085e-10   4.7233301632016625e-10   3.4037159820833887e-10   3.4010858299357807e-10   2.2961129795132082e-10   2.2943155624058724e-10   1.4068060596235990e-10   1.4056856861561926e-10   7.3793764372863771e-11   7.3733700695544425e-11   2.9111909740671693e-11   2.9087965342601948e-11   6.7426848574046620e-12   6.7389198107768168e-12   6.7399794263711579e-12   6.7404066317405692e-12   2.9103800236801063e-11   2.9092423904231597e-11   7.3780271146693060e-11   7.3741125299782344e-11   1.4066176287418319e-10   1.4057894978399781e-10   2.2958715228550771e-10   2.2944488074164495e-10   3.4034221055323469e-10   3.4012483388002112e-10   4.7266011925257699e-10   4.7235217297783984e-10   6.2622211314861784e-10   6.2580835223727243e-10   8.0065824812961215e-10   8.0012368368709283e-10   9.9554829243394129e-10   9.9487822779676531e-10   1.2104227390243631e-09   1.2096028051452221e-09   1.4447639366713392e-09   1.4437801267196810e-09   1.6980073370191986e-09   1.6968460401071519e-09   1.9695428546319611e-09   1.9681908885895475e-09   2.2587163367423738e-09   2.2571609798614509e-09   2.5648311391622789e-09   2.5630601608286678e-09   2.8871498045587977e-09   2.8851514947072350e-09   3.2248958390535879e-09   3.2226590363658961e-09   3.5772555828635428e-09   3.5747697016460431e-09   3.9433801704775217e-09   3.9406352261532828e-09   4.3223875756487516e-09   4.3193742088026499e-09   4.7133647362709064e-09   4.7100742351860350e-09   5.1153697540250205e-09   5.1117940756610454e-09   5.5274341634949023e-09   5.5235659528560141e-09   5.9485652652835858e-09   5.9443978731302219e-09   6.3777485175129771e-09   6.3732760163661312e-09   6.8139499799444134e-09   6.8091671783560809e-09   7.2561188048297227e-09   7.2510212598812043e-09   7.7031897684947771e-09   7.6977737964851437e-09   8.1540858375573571e-09   8.1483485228671597e-09   8.6077207635925325e-09   8.6016599656912157e-09   9.0630017000020369e-09   9.0566160585875249e-09   9.5188318347754489e-09   9.5121207730314982e-09   9.9741130328056590e-09   9.9670767587701771e-09   1.0427748481393427e-08   1.0420387987433861e-08   1.0878645332562086e-08   1.0870962392955025e-08   1.1325717335828469e-08   1.1317714502450863e-08   1.1767887455069550e-08   1.1759568051213864e-08   1.2204090463200179e-08   1.2195458575524033e-08   1.2633275508396609e-08   1.2624335977024611e-08   1.3054408645689272e-08   1.3045167052498448e-08   1.3466475327829672e-08   1.3456937982928917e-08   1.3868482849420444e-08   1.3858656775868375e-08   1.4259462738430039e-08   1.4249355655223236e-08   1.4638473089327678e-08   1.4628093392690708e-08   1.5004600832215554e-08   1.4993957575245298e-08   1.5356963932492455e-08   1.5346066803192466e-08   1.5694713515758077e-08   1.5683572813504530e-08   1.6017035912820310e-08   1.6005662523326140e-08   1.6323154619898835e-08   1.6311559988708240e-08   1.6612332169292905e-08   1.6600528273859376e-08   1.6883871906002418e-08   1.6871871226399637e-08   1.7137119666039389e-08   1.7124935154331979e-08   1.7371465352362007e-08   1.7359110400674293e-08   1.7586344404657983e-08   1.7573832811934974e-08   1.7781239159422889e-08   1.7768585096845100e-08   1.7955680097062984e-08   1.7942898071999999e-08   1.8109246973013030e-08   1.8096351791264194e-08   1.8241569830158731e-08   1.8228576555917095e-08   1.8352329890105757e-08   1.8339253802476391e-08   1.8441260321172099e-08   1.8428116864537249e-08   1.8508146881252357e-08   1.8494951602676110e-08   1.8552828434027754e-08   1.8539596887706638e-08   1.8575197337373417e-08   1.8561944881167875e-08   1.8561868473635121e-08   1.8526222028423889e-08   1.8539569322071875e-08   1.8503935403233592e-08   1.8495002135768206e-08   1.8459423438242260e-08   1.8428274566142749e-08   1.8392793652446164e-08   1.8339547488811178e-08   1.8304206713596078e-08   1.8229034718509708e-08   1.8193876124394214e-08   1.8097002526329790e-08   1.8062067738206735e-08   1.7943769011630217e-08   1.7909099132364525e-08   1.7769703341954418e-08   1.7735338850191075e-08   1.7575224866851634e-08   1.7541205517137821e-08   1.7360802109361544e-08   1.7327166834641636e-08   1.7126951638311627e-08   1.7093738454854168e-08   1.6874236824467045e-08   1.6841482739326279e-08   1.6603266483714548e-08   1.6571007404850560e-08   1.6314693410622113e-08   1.6282964059830559e-08   1.6009212805972598e-08   1.5978046634792693e-08   1.5687560602079807e-08   1.5656989710848240e-08   1.5350511689941247e-08   1.5320566750168019e-08   1.4998878052518523e-08   1.4969588232746882e-08   1.4633506808635275e-08   1.4604899703965229e-08   1.4255278172221998e-08   1.4227379737648334e-08   1.3865103331818530e-08   1.3837937819545505e-08   1.3463922255458184e-08   1.3437512156327052e-08   1.3052701426206642e-08   1.3027067415387285e-08   1.2632431513826027e-08   1.2607592400883907e-08   1.2204124988162688e-08   1.2180097671639488e-08   1.1768813680018492e-08   1.1745613106618843e-08   1.1327546295383735e-08   1.1305185423861551e-08   1.0881385889005273e-08   1.0859875658853256e-08   1.0431407303387904e-08   1.0410756608395997e-08   9.9786945794077636e-09   9.9589102461442518e-09   9.5243383447546104e-09   9.5054251160379365e-09   9.0694331865103625e-09   9.0513937098992021e-09   8.6150750141837309e-09   8.5979098355186405e-09   8.1623584195706473e-09   8.1460659815818593e-09   7.7123740397788327e-09   7.6969506857556969e-09   7.2662059297793902e-09   7.2516459123060808e-09   6.8249289508223296e-09   6.8112244455484987e-09   6.3896061809968653e-09   6.3767473054156213e-09   5.9612863541778187e-09   5.9492611913581014e-09   5.5410013335290194e-09   5.5297959607599249e-09   5.1297636256524848e-09   5.1193621479064496e-09   4.7285639413634400e-09   4.7189485295289351e-09   4.3383688089829306e-09   4.3295197427413326e-09   3.9601182458781499e-09   3.9520139611558887e-09   3.5947234938764006e-09   3.5873406347220117e-09   3.2430648240013974e-09   3.2363782987954892e-09   2.9059894158189611e-09   2.8999724576563695e-09   2.5843093165081969e-09   2.5789335476256597e-09   2.2787994845582286e-09   2.2740349846377177e-09   1.9901959228293862e-09   1.9860113010274471e-09   1.7191939054562460e-09   1.7155563759645760e-09   1.4664463028640017e-09   1.4633217638462073e-09   1.2325620089493803e-09   1.2299151246396954e-09   1.0181044741961304e-09   1.0158987599777919e-09   8.2359034827561830e-10   8.2178825852599363e-10   6.4948823538875761e-10   6.4805125388385827e-10   4.9621756535574120e-10   4.9510629801417491e-10   3.6414758317429769e-10   3.6332185291655128e-10   2.5359645947185224e-10   2.5301540296937512e-10   1.6483052400591497e-10   1.6445269008348002e-10   9.8063624049990628e-11   9.7847073508060136e-11   5.3456609217258616e-11   5.3359015829020137e-11   3.1116943958243701e-11   3.1095696403618739e-11   3.1098448669401433e-11   3.1110753155141322e-11   5.3401170033813031e-11   5.3404153356735802e-11   9.7971380908883859e-11   9.7922193710726625e-11   1.6470170975901996e-10   1.6455762972620036e-10   2.5343139932298240e-10   2.5314993408186056e-10   3.6394669389101382e-10   3.6348568335029344e-10   4.9598135426113696e-10   4.9529907215623065e-10   6.4921729913357652e-10   6.4827255352669391e-10   8.2328537139352865e-10   8.2203760388802334e-10   1.0177662274452744e-09   1.0161756108744612e-09   1.2321913474446276e-09   1.2302188818037565e-09   1.4660441640071921e-09   1.4636517703883262e-09   1.7187613066606663e-09   1.7159119189751683e-09   1.9897339590550779e-09   1.9863916133140509e-09   2.2783093256549996e-09   2.2744392465971663e-09   2.5837922043768079e-09   2.5793608892329237e-09   2.9054466613957144e-09   2.9004219605891286e-09   3.2424978040709868e-09   3.2368489986604825e-09   3.5941336477290710e-09   3.5878315233983836e-09   3.9595070718061233e-09   3.9525239892423023e-09   4.3377378606362247e-09   4.3300478221019798e-09   4.7279148239621778e-09   4.7194935359197904e-09   5.1290979920747434e-09   5.1199229237081717e-09   5.5403208802809109e-09   5.5303713177598686e-09   5.9605928172492375e-09   5.9498499136276067e-09   6.3889013316158424e-09   6.3773481522271267e-09   6.8242145911208756e-09   6.8118361543681389e-09   7.2654838883810353e-09   7.2522672018172316e-09   7.7116461673097556e-09   7.6975802589312973e-09   8.1616265841163826e-09   8.1467025287829252e-09   8.6143410966899307e-09   8.5985520376157812e-09   9.0686990761516203e-09   9.0520402414092175e-09   9.5236059342703756e-09   9.5060746482719079e-09   9.9779657604184092e-09   9.9595614503435557e-09   1.0430683961713539e-08   1.0411408158867595e-08   1.0880669899979559e-08   1.0860526236083739e-08   1.1326839519187953e-08   1.1305833717601173e-08   1.1768117957034271e-08   1.1746257818932466e-08   1.2203442134371611e-08   1.2180737519919352e-08   1.2631763316249903e-08   1.2608226120804147e-08   1.3052049638406824e-08   1.3027693763806989e-08   1.3463288593103020e-08   1.3438129914128034e-08   1.3864489468330890e-08   1.3838545794384165e-08   1.4254685734514960e-08   1.4227976766643273e-08   1.4632937372945218e-08   1.4605484656286464e-08   1.4998333140349525e-08   1.4970160012114814e-08   1.5349992764129537e-08   1.5321124297259693e-08   1.5687069062981561e-08   1.5657532005590136e-08   1.6008749987796691e-08   1.5978572698544779e-08   1.6314260577905096e-08   1.6283472957464027e-08   1.6602864827960134e-08   1.6571498246705721e-08   1.6873867460952306e-08   1.6841954683056969e-08   1.7126615603074152e-08   1.7094190707156952e-08   1.7360500356384482e-08   1.7327598652882278e-08   1.7574958265459368e-08   1.7541616210878053e-08   1.7769472674448519e-08   1.7735727782639947e-08   1.7943574971193530e-08   1.7909465721793780e-08   1.8096845715267093e-08   1.8062411459374550e-08   1.8228915646914856e-08   1.8194196510067104e-08   1.8339466573841776e-08   1.8304503356281087e-08   1.8428232132186783e-08   1.8393066206459820e-08   1.8494998415740202e-08   1.8459671622359952e-08   1.8539604458692480e-08   1.8504159005086882e-08   1.8561942515741973e-08   1.8526420917752600e-08   1.8526267227263032e-08   1.8468392751712154e-08   1.8504098965243340e-08   1.8446207191747932e-08   1.8459761120631260e-08   1.8401921775681055e-08   1.8393360788835934e-08   1.8335643416181633e-08   1.8305058080765024e-08   1.8247531923569480e-08   1.8195065810436706e-08   1.8137799656517515e-08   1.8063649012399874e-08   1.8006711031416241e-08   1.7911124317032693e-08   1.7854581896692939e-08   1.7737859194861671e-08   1.7681778778241221e-08   1.7544271075282599e-08   1.7488718000182474e-08   1.7330826343296249e-08   1.7275864684240221e-08   1.7098039217403736e-08   1.7043731630734631e-08   1.6846470511738093e-08   1.6792878084206207e-08   1.6576726285628075e-08   1.6523908386833905e-08   1.6289456383953177e-08   1.6237470522994815e-08   1.5985352871896673e-08   1.5934254558550827e-08   1.5665148367894830e-08   1.5614990978657729e-08   1.5329614278832746e-08   1.5280448928132400e-08   1.4979558941753525e-08   1.4931434358641432e-08   1.4615825676575764e-08   1.4568788087183482e-08   1.4239290754507534e-08   1.4193383770552494e-08   1.3850861287066928e-08   1.3806125800663990e-08   1.3451473040792512e-08   1.3407947125836134e-08   1.3042088182918595e-08   1.2999807003254635e-08   1.2623692963432028e-08   1.2582688688051195e-08   1.2197295339121375e-08   1.2157597064569099e-08   1.1763922545317211e-08   1.1725556225512493e-08   1.1324618621188380e-08   1.1287607004818054e-08   1.0880441894561459e-08   1.0844804470192647e-08   1.0432462432308547e-08   1.0398215381367496e-08   9.9817594624557782e-09   9.9489156201643653e-09   9.5294187742257238e-09   9.4979875986063854e-09   9.0765301022658263e-09   9.0465176512847149e-09   8.6241845013726525e-09   8.5955934182746291e-09   8.1734717180462516e-09   8.1463012249133258e-09   7.7254775651782056e-09   7.6997234647349188e-09   7.2812813062295463e-09   7.2569359918889973e-09   6.8419530551839162e-09   6.8190055293019532e-09   6.4085511985445134e-09   6.3869870988462216e-09   5.9821198455750812e-09   5.9619214796931334e-09   5.5636863129518984e-09   5.5448327009782592e-09   5.1542586498492678e-09   5.1367255748196570e-09   4.7548232094674693e-09   4.7385832756322921e-09   4.3663422728045224e-09   4.3513649715728705e-09   3.9897517304451566e-09   3.9760035138154976e-09   3.6259588278966808e-09   3.6134031892224117e-09   3.2758399799658780e-09   3.2644375418405755e-09   2.9402386593827111e-09   2.9299472684499932e-09   2.6199633648091274e-09   2.6107381932503761e-09   2.3157856730756729e-09   2.3075793265608958e-09   2.0284383803977956e-09   2.0212010121992794e-09   1.7586137369899705e-09   1.7522931680220385e-09   1.5069617793802693e-09   1.5015036238468727e-09   1.2740887644077960e-09   1.2694365607769986e-09   1.0605557086954859e-09   1.0566510556737941e-09   8.6687703711165917e-10   8.6365973428953256e-10   6.9351934347298145e-10   6.9092753630841174e-10   5.4090026647661614e-10   5.3887059526596947e-10   4.0938748357268655e-10   4.0785523604678243e-10   2.9929782519349675e-10   2.9819709237841974e-10   2.1089651148192646e-10   2.1016034643862447e-10   1.4439651335243331e-10   1.4395709242185298e-10   9.9958039422919451e-11   9.9746825585886535e-11   7.7688150060557812e-11   7.7636058013625567e-11   7.7640499461061995e-11   7.7678062019328306e-11   9.9815206392386910e-11   9.9872741810840770e-11   1.4415885390764104e-10   1.4416663372297397e-10   2.1056461803149739e-10   2.1045303501698880e-10   2.9887252510833600e-10   2.9857226093830485e-10   4.0886983719252027e-10   4.0831202941314964e-10   5.4029156455329615e-10   5.3940797245559727e-10   6.9282110405863181e-10   6.9154427305516468e-10   8.6609100189831691e-10   8.6435442600941117e-10   1.0596838388137663e-09   1.0574221208676581e-09   1.2731332356981743e-09   1.2702822448611468e-09   1.5059249771421563e-09   1.5024220034015758e-09   1.7574982502259248e-09   1.7532821554495420e-09   2.0272469955649056e-09   2.0222583607764320e-09   2.3145213673612687e-09   2.3087026358709620e-09   2.6186292989354672e-09   2.6119249149942005e-09   2.9388381699793181e-09   2.9311947126025863e-09   3.2743765715003413e-09   3.2657428831558458e-09   3.6244361642055440e-09   3.6147634740546847e-09   3.9881736258737064e-09   3.9774156672485736e-09   4.3647126829806852e-09   4.3528258048435900e-09   4.7531462217189868e-09   4.7400894938153610e-09   5.1525384733187583e-09   5.1382737847719141e-09   5.5619272683834278e-09   5.5464194195060217e-09   5.9803263548503227e-09   5.9635431419356388e-09   6.4067277739436974e-09   6.3886400668440529e-09   6.8401042884399033e-09   6.8206861007346468e-09   7.2794118573652128e-09   7.2586404089607733e-09   7.7235921511786530e-09   7.7014479231809205e-09   8.1715751013769585e-09   8.1480418831046140e-09   8.6222814783763984e-09   8.5973464064075863e-09   9.0746254914651901e-09   9.0482790806149072e-09   9.5275174045639221e-09   9.4997535707253269e-09   9.9798661614870971e-09   9.9506822362746877e-09   1.0430582014385745e-08   1.0399978751547903e-08   1.0878579149036508e-08   1.0846560722622179e-08   1.1322778300652611e-08   1.1289352294935119e-08   1.1762109353913364e-08   1.1727286745094185e-08   1.2195513920959406e-08   1.2159309050697710e-08   1.2621947891121745e-08   1.2584378431951044e-08   1.3040383946260740e-08   1.3001470858976723e-08   1.3449814035649924e-08   1.3409581518766168e-08   1.3849251804427711e-08   1.3807727235831353e-08   1.4237734969795285e-08   1.4194948840726902e-08   1.4614327639204938e-08   1.4570313480734500e-08   1.4978122564968616e-08   1.4932916867132955e-08   1.5328243329859685e-08   1.5281885453653337e-08   1.5663846458414474e-08   1.5616378540857735e-08   1.5984123448872169e-08   1.5935590301362189e-08   1.6288302720841704e-08   1.6238751721037068e-08   1.6575651473989883e-08   1.6525132451485931e-08   1.6845477453273591e-08   1.6794042569329124e-08   1.7097130616442457e-08   1.7044834238049211e-08   1.7330004699771364e-08   1.7276903268347885e-08   1.7543538678215936e-08   1.7489690573240234e-08   1.7737218116404805e-08   1.7682683514299323e-08   1.7910576407121950e-08   1.7855417135719177e-08   1.8063195894088606e-08   1.8007475283043004e-08   1.8194708876012791e-08   1.8138491603570655e-08   1.8304798488783717e-08   1.8248150425468812e-08   1.8393199462213219e-08   1.8336187512395475e-08   1.8459698746057598e-08   1.8402390689729979e-08   1.8504135995081798e-08   1.8446600337378568e-08   1.8526403890919785e-08   1.8468709746241927e-08   1.8468479340027699e-08   1.8388500667374125e-08   1.8446508124155537e-08   1.8366455780706572e-08   1.8402519083371043e-08   1.8322489653357124e-08   1.8336618412656120e-08   1.8256708369311234e-08   1.8248965008899112e-08   1.8169270519647125e-08   1.8139770123756995e-08   1.8060386832867342e-08   1.8009296875707402e-08   1.7930319679249675e-08   1.7857859627514954e-08   1.7779382446872890e-08   1.7685823235253598e-08   1.7607938791737407e-08   1.7493602173098366e-08   1.7416401764897652e-08   1.7281659537159171e-08   1.7205232819474497e-08   1.7050505931354987e-08   1.6974940700353994e-08   1.6800698238326119e-08   1.6726080219529423e-08   1.6532838278538822e-08   1.6459250920171098e-08   1.62475713