<?xml version="1.0"?>
<VTKFile type="UnstructuredGrid"  version="0.1"  >
<UnstructuredGrid>
<Piece  NumberOfPoints="16641" NumberOfCells="32768">
<Points>
<DataArray  type="Float64"  NumberOfComponents="3"  format="ascii">0 0 0  0.0078125 0 0  0.015625 0 0  0.0234375 0 0  0.03125 0 0  0.0390625 0 0  0.046875 0 0  0.0546875 0 0  0.0625 0 0  0.0703125 0 0  0.078125 0 0  0.0859375 0 0  0.09375 0 0  0.1015625 0 0  0.109375 0 0  0.1171875 0 0  0.125 0 0  0.1328125 0 0  0.140625 0 0  0.1484375 0 0  0.15625 0 0  0.1640625 0 0  0.171875 0 0  0.1796875 0 0  0.1875 0 0  0.1953125 0 0  0.203125 0 0  0.2109375 0 0  0.21875 0 0  0.2265625 0 0  0.234375 0 0  0.2421875 0 0  0.25 0 0  0.2578125 0 0  0.265625 0 0  0.2734375 0 0  0.28125 0 0  0.2890625 0 0  0.296875 0 0  0.3046875 0 0  0.3125 0 0  0.3203125 0 0  0.328125 0 0  0.3359375 0 0  0.34375 0 0  0.3515625 0 0  0.359375 0 0  0.3671875 0 0  0.375 0 0  0.3828125 0 0  0.390625 0 0  0.3984375 0 0  0.40625 0 0  0.4140625 0 0  0.421875 0 0  0.4296875 0 0  0.4375 0 0  0.4453125 0 0  0.453125 0 0  0.4609375 0 0  0.46875 0 0  0.4765625 0 0  0.484375 0 0  0.4921875 0 0  0.5 0 0  0.5078125 0 0  0.515625 0 0  0.5234375 0 0  0.53125 0 0  0.5390625 0 0  0.546875 0 0  0.5546875 0 0  0.5625 0 0  0.5703125 0 0  0.578125 0 0  0.5859375 0 0  0.59375 0 0  0.6015625 0 0  0.609375 0 0  0.6171875 0 0  0.625 0 0  0.6328125 0 0  0.640625 0 0  0.6484375 0 0  0.65625 0 0  0.6640625 0 0  0.671875 0 0  0.6796875 0 0  0.6875 0 0  0.6953125 0 0  0.703125 0 0  0.7109375 0 0  0.71875 0 0  0.7265625 0 0  0.734375 0 0  0.7421875 0 0  0.75 0 0  0.7578125 0 0  0.765625 0 0  0.7734375 0 0  0.78125 0 0  0.7890625 0 0  0.796875 0 0  0.8046875 0 0  0.8125 0 0  0.8203125 0 0  0.828125 0 0  0.8359375 0 0  0.84375 0 0  0.8515625 0 0  0.859375 0 0  0.8671875 0 0  0.875 0 0  0.8828125 0 0  0.890625 0 0  0.8984375 0 0  0.90625 0 0  0.9140625 0 0  0.921875 0 0  0.9296875 0 0  0.9375 0 0  0.9453125 0 0  0.953125 0 0  0.9609375 0 0  0.96875 0 0  0.9765625 0 0  0.984375 0 0  0.9921875 0 0  1 0 0  0 0.0078125 0  0.0078125 0.0078125 0  0.015625 0.0078125 0  0.0234375 0.0078125 0  0.03125 0.0078125 0  0.0390625 0.0078125 0  0.046875 0.0078125 0  0.0546875 0.0078125 0  0.0625 0.0078125 0  0.0703125 0.0078125 0  0.078125 0.0078125 0  0.0859375 0.0078125 0  0.09375 0.0078125 0  0.1015625 0.0078125 0  0.109375 0.0078125 0  0.1171875 0.0078125 0  0.125 0.0078125 0  0.1328125 0.0078125 0  0.140625 0.0078125 0  0.1484375 0.0078125 0  0.15625 0.0078125 0  0.1640625 0.0078125 0  0.171875 0.0078125 0  0.1796875 0.0078125 0  0.1875 0.0078125 0  0.1953125 0.0078125 0  0.203125 0.0078125 0  0.2109375 0.0078125 0  0.21875 0.0078125 0  0.2265625 0.0078125 0  0.234375 0.0078125 0  0.2421875 0.0078125 0  0.25 0.0078125 0  0.2578125 0.0078125 0  0.265625 0.0078125 0  0.2734375 0.0078125 0  0.28125 0.0078125 0  0.2890625 0.0078125 0  0.296875 0.0078125 0  0.3046875 0.0078125 0  0.3125 0.0078125 0  0.3203125 0.0078125 0  0.328125 0.0078125 0  0.3359375 0.0078125 0  0.34375 0.0078125 0  0.3515625 0.0078125 0  0.359375 0.0078125 0  0.3671875 0.0078125 0  0.375 0.0078125 0  0.3828125 0.0078125 0  0.390625 0.0078125 0  0.3984375 0.0078125 0  0.40625 0.0078125 0  0.4140625 0.0078125 0  0.421875 0.0078125 0  0.4296875 0.0078125 0  0.4375 0.0078125 0  0.4453125 0.0078125 0  0.453125 0.0078125 0  0.4609375 0.0078125 0  0.46875 0.0078125 0  0.4765625 0.0078125 0  0.484375 0.0078125 0  0.4921875 0.0078125 0  0.5 0.0078125 0  0.5078125 0.0078125 0  0.515625 0.0078125 0  0.5234375 0.0078125 0  0.53125 0.0078125 0  0.5390625 0.0078125 0  0.546875 0.0078125 0  0.5546875 0.0078125 0  0.5625 0.0078125 0  0.5703125 0.0078125 0  0.578125 0.0078125 0  0.5859375 0.0078125 0  0.59375 0.0078125 0  0.6015625 0.0078125 0  0.609375 0.0078125 0  0.6171875 0.0078125 0  0.625 0.0078125 0  0.6328125 0.0078125 0  0.640625 0.0078125 0  0.6484375 0.0078125 0  0.65625 0.0078125 0  0.6640625 0.0078125 0  0.671875 0.0078125 0  0.6796875 0.0078125 0  0.6875 0.0078125 0  0.6953125 0.0078125 0  0.703125 0.0078125 0  0.7109375 0.0078125 0  0.71875 0.0078125 0  0.7265625 0.0078125 0  0.734375 0.0078125 0  0.7421875 0.0078125 0  0.75 0.0078125 0  0.7578125 0.0078125 0  0.765625 0.0078125 0  0.7734375 0.0078125 0  0.78125 0.0078125 0  0.7890625 0.0078125 0  0.796875 0.0078125 0  0.8046875 0.0078125 0  0.8125 0.0078125 0  0.8203125 0.0078125 0  0.828125 0.0078125 0  0.8359375 0.0078125 0  0.84375 0.0078125 0  0.8515625 0.0078125 0  0.859375 0.0078125 0  0.8671875 0.0078125 0  0.875 0.0078125 0  0.8828125 0.0078125 0  0.890625 0.0078125 0  0.8984375 0.0078125 0  0.90625 0.0078125 0  0.9140625 0.0078125 0  0.921875 0.0078125 0  0.9296875 0.0078125 0  0.9375 0.0078125 0  0.9453125 0.0078125 0  0.953125 0.0078125 0  0.9609375 0.0078125 0  0.96875 0.0078125 0  0.9765625 0.0078125 0  0.984375 0.0078125 0  0.9921875 0.0078125 0  1 0.0078125 0  0 0.015625 0  0.0078125 0.015625 0  0.015625 0.015625 0  0.0234375 0.015625 0  0.03125 0.015625 0  0.0390625 0.015625 0  0.046875 0.015625 0  0.0546875 0.015625 0  0.0625 0.015625 0  0.0703125 0.015625 0  0.078125 0.015625 0  0.0859375 0.015625 0  0.09375 0.015625 0  0.1015625 0.015625 0  0.109375 0.015625 0  0.1171875 0.015625 0  0.125 0.015625 0  0.1328125 0.015625 0  0.140625 0.015625 0  0.1484375 0.015625 0  0.15625 0.015625 0  0.1640625 0.015625 0  0.171875 0.015625 0  0.1796875 0.015625 0  0.1875 0.015625 0  0.1953125 0.015625 0  0.203125 0.015625 0  0.2109375 0.015625 0  0.21875 0.015625 0  0.2265625 0.015625 0  0.234375 0.015625 0  0.2421875 0.015625 0  0.25 0.015625 0  0.2578125 0.015625 0  0.265625 0.015625 0  0.2734375 0.015625 0  0.28125 0.015625 0  0.2890625 0.015625 0  0.296875 0.015625 0  0.3046875 0.015625 0  0.3125 0.015625 0  0.3203125 0.015625 0  0.328125 0.015625 0  0.3359375 0.015625 0  0.34375 0.015625 0  0.3515625 0.015625 0  0.359375 0.015625 0  0.3671875 0.015625 0  0.375 0.015625 0  0.3828125 0.015625 0  0.390625 0.015625 0  0.3984375 0.015625 0  0.40625 0.015625 0  0.4140625 0.015625 0  0.421875 0.015625 0  0.4296875 0.015625 0  0.4375 0.015625 0  0.4453125 0.015625 0  0.453125 0.015625 0  0.4609375 0.015625 0  0.46875 0.015625 0  0.4765625 0.015625 0  0.484375 0.015625 0  0.4921875 0.015625 0  0.5 0.015625 0  0.5078125 0.015625 0  0.515625 0.015625 0  0.5234375 0.015625 0  0.53125 0.015625 0  0.5390625 0.015625 0  0.546875 0.015625 0  0.5546875 0.015625 0  0.5625 0.015625 0  0.5703125 0.015625 0  0.578125 0.015625 0  0.5859375 0.015625 0  0.59375 0.015625 0  0.6015625 0.015625 0  0.609375 0.015625 0  0.6171875 0.015625 0  0.625 0.015625 0  0.6328125 0.015625 0  0.640625 0.015625 0  0.6484375 0.015625 0  0.65625 0.015625 0  0.6640625 0.015625 0  0.671875 0.015625 0  0.6796875 0.015625 0  0.6875 0.015625 0  0.6953125 0.015625 0  0.703125 0.015625 0  0.7109375 0.015625 0  0.71875 0.015625 0  0.7265625 0.015625 0  0.734375 0.015625 0  0.7421875 0.015625 0  0.75 0.015625 0  0.7578125 0.015625 0  0.765625 0.015625 0  0.7734375 0.015625 0  0.78125 0.015625 0  0.7890625 0.015625 0  0.796875 0.015625 0  0.8046875 0.015625 0  0.8125 0.015625 0  0.8203125 0.015625 0  0.828125 0.015625 0  0.8359375 0.015625 0  0.84375 0.015625 0  0.8515625 0.015625 0  0.859375 0.015625 0  0.8671875 0.015625 0  0.875 0.015625 0  0.8828125 0.015625 0  0.890625 0.015625 0  0.8984375 0.015625 0  0.90625 0.015625 0  0.9140625 0.015625 0  0.921875 0.015625 0  0.9296875 0.015625 0  0.9375 0.015625 0  0.9453125 0.015625 0  0.953125 0.015625 0  0.9609375 0.015625 0  0.96875 0.015625 0  0.9765625 0.015625 0  0.984375 0.015625 0  0.9921875 0.015625 0  1 0.015625 0  0 0.0234375 0  0.0078125 0.0234375 0  0.015625 0.0234375 0  0.0234375 0.0234375 0  0.03125 0.0234375 0  0.0390625 0.0234375 0  0.046875 0.0234375 0  0.0546875 0.0234375 0  0.0625 0.0234375 0  0.0703125 0.0234375 0  0.078125 0.0234375 0  0.0859375 0.0234375 0  0.09375 0.0234375 0  0.1015625 0.0234375 0  0.109375 0.0234375 0  0.1171875 0.0234375 0  0.125 0.0234375 0  0.1328125 0.0234375 0  0.140625 0.0234375 0  0.1484375 0.0234375 0  0.15625 0.0234375 0  0.1640625 0.0234375 0  0.171875 0.0234375 0  0.1796875 0.0234375 0  0.1875 0.0234375 0  0.1953125 0.0234375 0  0.203125 0.0234375 0  0.2109375 0.0234375 0  0.21875 0.0234375 0  0.2265625 0.0234375 0  0.234375 0.0234375 0  0.2421875 0.0234375 0  0.25 0.0234375 0  0.2578125 0.0234375 0  0.265625 0.0234375 0  0.2734375 0.0234375 0  0.28125 0.0234375 0  0.2890625 0.0234375 0  0.296875 0.0234375 0  0.3046875 0.0234375 0  0.3125 0.0234375 0  0.3203125 0.0234375 0  0.328125 0.0234375 0  0.3359375 0.0234375 0  0.34375 0.0234375 0  0.3515625 0.0234375 0  0.359375 0.0234375 0  0.3671875 0.0234375 0  0.375 0.0234375 0  0.3828125 0.0234375 0  0.390625 0.0234375 0  0.3984375 0.0234375 0  0.40625 0.0234375 0  0.4140625 0.0234375 0  0.421875 0.0234375 0  0.4296875 0.0234375 0  0.4375 0.0234375 0  0.4453125 0.0234375 0  0.453125 0.0234375 0  0.4609375 0.0234375 0  0.46875 0.0234375 0  0.4765625 0.0234375 0  0.484375 0.0234375 0  0.4921875 0.0234375 0  0.5 0.0234375 0  0.5078125 0.0234375 0  0.515625 0.0234375 0  0.5234375 0.0234375 0  0.53125 0.0234375 0  0.5390625 0.0234375 0  0.546875 0.0234375 0  0.5546875 0.0234375 0  0.5625 0.0234375 0  0.5703125 0.0234375 0  0.578125 0.0234375 0  0.5859375 0.0234375 0  0.59375 0.0234375 0  0.6015625 0.0234375 0  0.609375 0.0234375 0  0.6171875 0.0234375 0  0.625 0.0234375 0  0.6328125 0.0234375 0  0.640625 0.0234375 0  0.6484375 0.0234375 0  0.65625 0.0234375 0  0.6640625 0.0234375 0  0.671875 0.0234375 0  0.6796875 0.0234375 0  0.6875 0.0234375 0  0.6953125 0.0234375 0  0.703125 0.0234375 0  0.7109375 0.0234375 0  0.71875 0.0234375 0  0.7265625 0.0234375 0  0.734375 0.0234375 0  0.7421875 0.0234375 0  0.75 0.0234375 0  0.7578125 0.0234375 0  0.765625 0.0234375 0  0.7734375 0.0234375 0  0.78125 0.0234375 0  0.7890625 0.0234375 0  0.796875 0.0234375 0  0.8046875 0.0234375 0  0.8125 0.0234375 0  0.8203125 0.0234375 0  0.828125 0.0234375 0  0.8359375 0.0234375 0  0.84375 0.0234375 0  0.8515625 0.0234375 0  0.859375 0.0234375 0  0.8671
[...]
<CellData  Scalars="f_3493"> 
<DataArray  type="Float64"  Name="f_3493"  format="ascii">2.9535543734710837e-07   2.9516182718625075e-07   2.9499981854840763e-07   2.9480481082249154e-07   2.9428940704445831e-07   2.9409368922595604e-07   2.9322591506085846e-07   2.9302997184022161e-07   2.9181190524888951e-07   2.9161613008419968e-07   2.9005078457638683e-07   2.8985552156474708e-07   2.8794679615298713e-07   2.8775235931867725e-07   2.8550500902690872e-07   2.8531169208389803e-07   2.8273130598480006e-07   2.8253938758309911e-07   2.7963236938743741e-07   2.7944211603114521e-07   2.7621566507680415e-07   2.7602733275746236e-07   2.7248942439437034e-07   2.7230325947685270e-07   2.6846262435429239e-07   2.6827886400846331e-07   2.6414496601965921e-07   2.6396383836893001e-07   2.5954685113404670e-07   2.5936857522392353e-07   2.5467935706473846e-07   2.5450414271736200e-07   2.4955421011818183e-07   2.4938225771528497e-07   2.4418375729190992e-07   2.4401525751479548e-07   2.3858093653101651e-07   2.3841607007735576e-07   2.3275924556093371e-07   2.3259818285255690e-07   2.2673270937149579e-07   2.2657561026235709e-07   2.2051584643077818e-07   2.2036285992304824e-07   2.1412363370997268e-07   2.1397489768286391e-07   2.0757147060359174e-07   2.0742711155913328e-07   2.0087514183209598e-07   2.0073527466071793e-07   1.9405077941592578e-07   1.9391550718414511e-07   1.8711482381309640e-07   1.8698423757463701e-07   1.8008398431338110e-07   1.7995816294571237e-07   1.7297519878504671e-07   1.7285420885155778e-07   1.6580559287070066e-07   1.6568948850995123e-07   1.5859243873080189e-07   1.5848126157272836e-07   1.5135311343416006e-07   1.5124689254416918e-07   1.4410505709553838e-07   1.4400380894697576e-07   1.3686573086149892e-07   1.3676945933594811e-07   1.2965257484542652e-07   1.2956127126119699e-07   1.2248296611316602e-07   1.2239660928278551e-07   1.1537417682063462e-07   1.1529273313595396e-07   1.0834333260398724e-07   1.0826675614991693e-07   1.0140737132283893e-07   1.0133560401855467e-07   9.4583002255780896e-08   9.4515974024082082e-08   8.7886665846523246e-08   8.7824294810092504e-08   8.1334494097733888e-08   8.1276686802642511e-08   7.4942271707827609e-08   7.4888923373184017e-08   6.8725398044471919e-08   6.8676392838253681e-08   6.2698850046385215e-08   6.2654061386395224e-08   5.6877146142694585e-08   5.6836437022308152e-08   5.1274311276988181e-08   5.1237534614690528e-08   4.5903843120142695e-08   4.5870842132417280e-08   4.0778679553339510e-08   4.0749288149914683e-08   3.5911167499732637e-08   3.5885210700108843e-08   3.1313033179727015e-08   3.1290327550196967e-08   2.6995353861598964e-08   2.6975707972214284e-08   2.2968531175429587e-08   2.2951746074953275e-08   1.9242266054810198e-08   1.9228135763409525e-08   1.5825535366448171e-08   1.5813847384483967e-08   1.2726570284201521e-08   1.2717106116262017e-08   9.9528364595111541e-09   9.9453721522498810e-09   7.5110160360331178e-09   7.5053227286256012e-09   5.4069915517936343e-09   5.4028360379513620e-09   3.6458317676956434e-09   3.6429770674612493e-09   2.2317794564296312e-09   2.2299853968888458e-09   1.1682411812912881e-09   1.1672649846256174e-09   4.5777908948523860e-10   4.5737596694455484e-10   1.0210473968371194e-10   1.0202849018955961e-10   1.0207497874150616e-10   1.0207859066307671e-10   4.5768987746728249e-10   4.5752613217040250e-10   1.1680927304295698e-09   1.1675148061482084e-09   2.2315721198355345e-09   2.2303341944823114e-09   3.6455660384496948e-09   3.6434238898875452e-09   5.4066680616660658e-09   5.4033796641308992e-09   7.5106355538654024e-09   7.5059616689518160e-09   9.9523998892278011e-09   9.9461046502456359e-09   1.2726078662475525e-08   1.2717930150626305e-08   1.5824989860044946e-08   1.5814760671309235e-08   1.9241667957574688e-08   1.9229135758471636e-08   2.2967881904962685e-08   2.2952829976583936e-08   2.6994654955626264e-08   2.6976872724088593e-08   3.1312286292161941e-08   3.1291569844546533e-08   3.5910374396442616e-08   3.5886526980794250e-08   4.0777842107639609e-08   4.0750674616143969e-08   4.5902963308038125e-08   4.5872294742128072e-08   5.1273391172169374e-08   5.1239049088454306e-08   5.6876187911286143e-08   5.6838008847108212e-08   6.2697855941518705e-08   6.2655685819975007e-08   6.8724370400667911e-08   6.8678064913086650e-08   7.4941212935148909e-08   7.4890637901231355e-08   8.1333406675899994e-08   8.1278438379729061e-08   8.7885552318811131e-08   8.7826077821427072e-08   9.4581865222885424e-08   9.4517782649252372e-08   1.0140621343662694e-07   1.0133743223758878e-07   1.0834215656125715e-07   1.0826859774980150e-07   1.1537298535682323e-07   1.1529458171778672e-07   1.2248176199608950e-07   1.2239845826984696e-07   1.2965136086905600e-07   1.2956311390836554e-07   1.3686450983982996e-07   1.3677128874007094e-07   1.4410383185659230e-07   1.4400561805946549e-07   1.5135188681403593e-07   1.5124867418478438e-07   1.5859121356805290e-07   1.5848300844656888e-07   1.6580437200070780e-07   1.6569119322690118e-07   1.7297398503483595e-07   1.7285586394872701e-07   1.8008278049653985e-07   1.7995976091399583e-07   1.8711363272505206e-07   1.8698577089011602e-07   1.9404960382943646e-07   1.9391696834359711e-07   2.0087398449312466e-07   2.0073665622392722e-07   2.0757033422744496e-07   2.0742840619714929e-07   2.1412252097775829e-07   2.1397609823398911e-07   2.2051475998617384e-07   2.2036395945670527e-07   2.2673165181768593e-07   2.2657660215224188e-07   2.3275821945791382e-07   2.3259906085956402e-07   2.3857994439293172e-07   2.3841682844330678e-07   2.4418280158448868e-07   2.4401589106682614e-07   2.4955329325623921e-07   2.4938276198311889e-07   2.5467848140938494e-07   2.5450451406198388e-07   2.5954601898966681e-07   2.5936881097890920e-07   2.6414417963033402e-07   2.6396393699396868e-07   2.6846188589942127e-07   2.6827882525394703e-07   2.7248873598336617e-07   2.7230308455870848e-07   2.7621502874226756e-07   2.7602702454063076e-07   2.7963178707660009e-07   2.7944167921857899e-07   2.8273077954861933e-07   2.8253882890779350e-07   2.8550454020628356e-07   2.8531102050034098e-07   2.8794638656108108e-07   2.8775158619233164e-07   2.9005043567609584e-07   2.8985466086266392e-07   2.9181161832330264e-07   2.9161519859464917e-07   2.9322569117340196e-07   2.9302898955981240e-07   2.9428924698144981e-07   2.9409268056967570e-07   2.9499972272545320e-07   2.9480380975143693e-07   2.9535540561847209e-07   2.9516089789698113e-07   2.9516208103022604e-07   2.9461463221356796e-07   2.9480579563735023e-07   2.9425754081043060e-07   2.9409584994100230e-07   2.9354757364559439e-07   2.9303375133125158e-07   2.9248623075550180e-07   2.9162196809481343e-07   2.9107595621102765e-07   2.8986385357111443e-07   2.8932008072020768e-07   2.8776361539836771e-07   2.8722279183076056e-07   2.8532629580452363e-07   2.8478911356064805e-07   2.8255775491509153e-07   2.8202488886562350e-07   2.7946465428637266e-07   2.7893676246339207e-07   2.7605443955500573e-07   2.7553216296507650e-07   2.7233532173737610e-07   2.7181928381844564e-07   2.6831625697884264e-07   2.6780706282292840e-07   2.6400692467887934e-07   2.6350516010518908e-07   2.5941770397648145e-07   2.5892393451563318e-07   2.5455964861508289e-07   2.5407441844583069e-07   2.4944446022397226e-07   2.4896829109317350e-07   2.4408446006660705e-07   2.4361785021448705e-07   2.3849255931499951e-07   2.3803598242120949e-07   2.3268222791624451e-07   2.3223613207939260e-07   2.2666746212106148e-07   2.2623226888154012e-07   2.2046275075159322e-07   2.2003885416369439e-07   2.1408304028617311e-07   2.1367080604646091e-07   2.0754369884489701e-07   2.0714346348102387e-07   2.0086047916168438e-07   2.0047254928502667e-07   1.9404948063101317e-07   1.9367413225703362e-07   1.8712711052049487e-07   1.8676458845853782e-07   1.8011004444281256e-07   1.7976056175807902e-07   1.7301518618113779e-07   1.7267892373015526e-07   1.6585962696562412e-07   1.6553673300697266e-07   1.5866060429788602e-07   1.5835119417892102e-07   1.5143546042369317e-07   1.5113961634511103e-07   1.4420160055346413e-07   1.4391937141057805e-07   1.3697645093048376e-07   1.3670785223399897e-07   1.2977741684860450e-07   1.2952243072343198e-07   1.2262184072118307e-07   1.2238041598379810e-07   1.1552696030026197e-07   1.1529901261477489e-07   1.0850986714888214e-07   1.0829527926121216e-07   1.0158746546470190e-07   1.0138608751469015e-07   9.4776431355943788e-08   9.4588081265913066e-08   8.8093172665831922e-08   8.7917636605768923e-08   8.1553789444165660e-08   8.1390822371595187e-08   7.5174035159695281e-08   7.5023361433689030e-08   6.8969278748059797e-08   6.8830592815244706e-08   6.2954467585671252e-08   6.2827434737457466e-08   5.7144091479451602e-08   5.7028348677796920e-08   5.1552147758718011e-08   5.1447304529685623e-08   4.6192107553833629e-08   4.6097746945546358e-08   4.1076883342325338e-08   4.0992562946078126e-08   3.6218797840787819e-08   3.6144050872369587e-08   3.1629554317671504e-08   3.1563890756848915e-08   2.7320208398928824e-08   2.7263116183674315e-08   2.3301141432913523e-08   2.3252087706402793e-08   1.9582035480681120e-08   1.9540467887357938e-08   1.6171849990303001e-08   1.6137198018505682e-08   1.3078800212465347e-08   1.3050476580189468e-08   1.0310337408710741e-08   1.0287739489106523e-08   7.8731309002284615e-09   7.8556421838510351e-09   5.7730520007132719e-09   5.7600435903798198e-09   4.0151598712405443e-09   4.0059920067295208e-09   2.6036893321469781e-09   2.5977129405195281e-09   1.5420406606792646e-09   1.5385989287215543e-09   8.3277139908846262e-10   8.3120136418576762e-10   4.7759019306727951e-10   4.7722434859642719e-10   4.7735267523516790e-10   4.7752058671961972e-10   8.3205940364200875e-10   8.3208933175906469e-10   1.5408558602036477e-09   1.5400763868084909e-09   2.6020345091590493e-09   2.5997761624067802e-09   4.0130389104591207e-09   4.0086357851331633e-09   5.7704698783943772e-09   5.7632612476000130e-09   7.8700936702945219e-09   7.8594255846178265e-09   1.0306852185951504e-08   1.0292079056320315e-08   1.3074875152859944e-08   1.3055361313236489e-08   1.6167494268297968e-08   1.6142615514505736e-08   1.9577259263462389e-08   1.9546404364659309e-08   2.3295955852145004e-08   2.3258528030857859e-08   2.7314625519464031e-08   2.7270043897226832e-08   3.1623587103756986e-08   3.1571288108359454e-08   3.6212460119335813e-08   3.6151898851014564e-08   4.1070189764132205e-08   4.1000841316700203e-08   4.6185073551849859e-08   4.6106434286059122e-08   5.1544789504385460e-08   5.1456378270480810e-08   5.7136425836545643e-08   5.7037785143341187e-08   6.2946512062492084e-08   6.2837209189592800e-08   6.8961051447135581e-08   6.8840679498204240e-08   7.5165554726354638e-08   7.5033733621000915e-08   8.1545075012908849e-08   8.1401452414874726e-08   8.8084243806217028e-08   8.7928495985369548e-08   9.4767308016454035e-08   9.4599140643199832e-08   1.0157816791635632e-07   1.0139731678654196e-07   1.0850041592817756e-07   1.0830664761651016e-07   1.1551737615178664e-07   1.1531048859321734e-07   1.2261214454029927e-07   1.2239196753743908e-07   1.2976762962491251e-07   1.2953402528093620e-07   1.3696659369180187e-07   1.3671945676814899e-07   1.4419169431179087e-07   1.4393095250983086e-07   1.5142552612228175e-07   1.5115114028904820e-07   1.5865066276168035e-07   1.5836262701947662e-07   1.6584969885446149e-07   1.6554804065443481e-07   1.7300529194643330e-07   1.7269007204684110e-07   1.8010020428903978e-07   1.7977151665873717e-07   1.8711734437234724e-07   1.8677531602070899e-07   1.9403980810566286e-07   1.9368459884004014e-07   2.0085091954898167e-07   2.0048272166160794e-07   2.0753427109483163e-07   2.0715330898071347e-07   2.1407376300545336e-07   2.1368029271415703e-07   2.2045364220959607e-07   2.2004795093331881e-07   2.2665854026657873e-07   2.2624094576764646e-07   2.3267351040566407e-07   2.3224436038739476e-07   2.3848406355284371e-07   2.3804373497813514e-07   2.4407620325825229e-07   2.4362510162166753e-07   2.4943645944275736e-07   2.4897501800095543e-07   2.5455192088206876e-07   2.5408059985196687e-07   2.5941026635393132e-07   2.5892955208683170e-07   2.6399979437667611e-07   2.6351019852108168e-07   2.6830945147234911e-07   2.6781151014089301e-07   2.7232885889531842e-07   2.7182313185673829e-07   2.7604833777512513e-07   2.7553540770045110e-07   2.7945893263486203e-07   2.7893940443774270e-07   2.8255243326613265e-07   2.8202693359616342e-07   2.8532139497481209e-07   2.8479057194867675e-07   2.8775915727301671e-07   2.8722368056963856e-07   2.8985986122089158e-07   2.8932042272325284e-07   2.9161846590760189e-07   2.9107578113789334e-07   2.9303076528778007e-07   2.9248557587135892e-07   2.9409340867510578e-07   2.9354648554815413e-07   2.9480393534755403e-07   2.9425607883980866e-07   2.9516086585237557e-07   2.9461287233845579e-07   2.9461531951484657e-07   2.9371534392952909e-07   2.9426003653468850e-07   2.9335911333826000e-07   2.9355274188345766e-07   2.9265197201548447e-07   2.9249492946019785e-07   2.9159544966889302e-07   2.9108903521856795e-07   2.9019198225709152e-07   2.8933837973168148e-07   2.8844488009047940e-07   2.8724713838265992e-07   2.8635830424963625e-07   2.8482032100527996e-07   2.8393724784493115e-07   2.8206375437702070e-07   2.8118751894843760e-07   2.7898406507929086e-07   2.7811572354272313e-07   2.7558866167255386e-07   2.7472924766855119e-07   2.7188571568918084e-07   2.7103623836427291e-07   2.6788414120325209e-07   2.6704558319162095e-07   2.6359357286552059e-07   2.6276688824803200e-07   2.5902434236365165e-07   2.5821045462628011e-07   2.5418745330741817e-07   2.5338725332074989e-07   2.4909455456497174e-07   2.4830889860184015e-07   2.4375791209175628e-07   2.4298761989779476e-07   2.3819037930441283e-07   2.3743623223441513e-07   2.3240536606276003e-07   2.3166810529267539e-07   2.2641680632664978e-07   2.2569713114968180e-07   2.2023912456096119e-07   2.1953769077539101e-07   2.1388720096710990e-07   2.1320461936176343e-07   2.0737633562197189e-07   2.0671317056462948e-07   2.0072221160890055e-07   2.0007897974250924e-07   1.9394085722924802e-07   1.9331802627933249e-07   1.8704860738316975e-07   1.8644659508084219e-07   1.8006206421405588e-07   1.7948123733644385e-07   1.7299805710902904e-07   1.7243873064076356e-07   1.6587360215329034e-07   1.6533603857049810e-07   1.5870586113395844e-07   1.5819026981327756e-07   1.5151210019454561e-07   1.5101863694769430e-07   1.4430964823635662e-07   1.4383841497287797e-07   1.3711585517046808e-07   1.3666689968773045e-07   1.2994805011753714e-07   1.2952136602014016e-07   1.2282349965891746e-07   1.2241902640661501e-07   1.1575936623746206e-07   1.1537698932217340e-07   1.0877266680994410e-07   1.0841221806110565e-07   1.0188023184943145e-07   1.0154148986714511e-07   9.5098664797136654e-08   9.4781355511915953e-08   8.8444302061189652e-08   8.8148099419464498e-08   8.1933173658796513e-08   8.1657700432051693e-08   7.5580964596561819e-08   7.5325793312267946e-08   6.9402977081836749e-08   6.9167631074677428e-08   6.3414093656741524e-08   6.3198048236496360e-08   5.7628741342559652e-08   5.7431425077139641e-08   5.2060856882590251e-08   5.1881652992080698e-08   4.6723853165207945e-08   4.6562101024529227e-08   4.1630586909789265e-08   4.1485583655703101e-08   3.6793327691913870e-08   3.6664329931285322e-08   3.2223728383733881e-08   3.2109953998084031e-08   2.7932797079882202e-08   2.7833427122896287e-08   2.3930870576600827e-08   2.3845051259478630e-08   2.0227589468439570e-08   2.0154434228445549e-08   1.6831874922071557e-08   1.6770466569578475e-08   1.3751907183566770e-08   1.3701300122203995e-08   1.0995105870343503e-08   1.0954328385123495e-08   8.5681120959889337e-09   8.5361687038763755e-09   6.4767724702811155e-09   6.4526463276112555e-09   4.7261250135448490e-09   4.7087803745277660e-09   3.3203870189422109e-09   3.3087717393587206e-09   2.2629448920389275e-09   2.2559929720889226e-09   1.5563459920761022e-09   1.5529801524079501e-09   1.2022924946357374e-09   1.2014267792907650e-09   1.2016372905038224e-09   1.2021796905499768e-09   1.5543819305284306e-09   1.5552370221294454e-09   2.2596766215494326e-09   2.2597482120616152e-09   3.3158222732247973e-09   3.3140160490919262e-09   4.7202745910187948e-09   4.7155007610294008e-09   6.4696502053893468e-09   6.4608261329520135e-09   8.5597348223104922e-09   8.5457876405046666e-09   1.0985493375789797e-08   1.0965362578831805e-08   1.3741082157529101e-08   1.3713722162533372e-08   1.6819862894954197e-08   1.6784245567705356e-08   2.0214418743197156e-08   2.0169535882033654e-08   2.3916572152957227e-08   2.3861437924766744e-08   2.7917404571077945e-08   2.7851057893446055e-08   3.2207277925983542e-08   3.2128784790066613e-08   3.6775857847137644e-08   3.6684313575297456e-08   4.1612138561393704e-08   4.1506669994650480e-08   4.6704469407344140e-08   4.6584237017214298e-08   5.2040582903159423e-08   5.1904782822545897e-08   5.7607624300652500e-08   5.7455490269903447e-08   6.3392182554232915e-08   6.3222987776281412e-08   6.9380322629747443e-08   6.9193381531525862e-08   7.5557619076712030e-08   7.5352288971385071e-08   8.1909190781274507e-08   8.1684873428568650e-08   8.8419736817964843e-08   8.8175879877605416e-08   9.5073573312211508e-08   9.4809671688516724e-08   1.0185467122650802e-07   1.0157026830008966e-07   1.0874669497797160e-07   1.0844138372188716e-07   1.1573304179494401e-07   1.1540646577350240e-07   1.2279688171775651e-07   1.2244873596481722e-07   1.2992119814714661e-07   1.2955122992291315e-07   1.3708882884312702e-07   1.3669683826731970e-07   1.4428250727518749e-07   1.4386834783572089e-07   1.5148490422449341e-07   1.5104848316095815e-07   1.5867866953824129e-07   1.5821994809925651e-07   1.6584647393487589e-07   1.6536546750965742e-07   1.7297105076058475e-07   1.7246782888486482e-07   1.8003523759593199e-07   1.7950992383264965e-07   1.8702201761323830e-07   1.8647478930923797e-07   1.9391456058375075e-07   1.9334564850420259e-07   2.0069626343883021e-07   2.0010595128056276e-07   2.0735079028460521e-07   2.0673941407111165e-07   2.1386211177658508e-07   2.1323005913742274e-07   2.2021454375818888e-07   2.1956225309562098e-07   2.2639278507180155e-07   2.2572074461895761e-07   2.3238195445144576e-07   2.3169070122571467e-07   2.3816762640965379e-07   2.3745774506639879e-07   2.4373586603339446e-07   2.4300798762553818e-07   2.4907326260685566e-07   2.4832806325677281e-07   2.5416696198401617e-07   2.5340516147461952e-07   2.5900469763558332e-07   2.5822705792976188e-07   2.6357482030312073e-07   2.6278214400029585e-07   2.6786632619638595e-07   2.6705945493862436e-07   2.7186888368024362e-07   2.7104869652117251e-07   2.7557285840818345e-07   2.7474027016051815e-07   2.7896933687442169e-07   2.7812529645541224e-07   2.8205014838440242e-07   2.8119563717911259e-07   2.8480788548371629e-07   2.8394391574584994e-07   2.8723592296193090e-07   2.8636353626034976e-07   2.8932843569124283e-07   2.8844870137286535e-07   2.9108041585347247e-07   2.9019442937796850e-07   2.9248769076192131e-07   2.9159657141548326e-07   2.9354694406501964e-07   2.9265183041264749e-07   2.9425574722485047e-07   2.9335778446257855e-07   2.9461261751494021e-07   2.9371291581686993e-07   2.9371667498201434e-07   2.9246615422865770e-07   2.9336374913005950e-07   2.9211158904405835e-07   2.9266119221581543e-07   2.9140887992132991e-07   2.9161052305800730e-07   2.9035958529455205e-07   2.9021416369995850e-07   2.8896613686591785e-07   2.8847540755767216e-07   2.8723182404099577e-07   2.8639839585598299e-07   2.8516077674611390e-07   2.8398809891656818e-07   2.8275794907115262e-07   2.8125029913169550e-07   2.8002910316389693e-07   2.7819157396695912e-07   2.7698079263417896e-07   2.7481927817348261e-07   2.7362034496402600e-07   2.7114152480090401e-07   2.6995584263465004e-07   2.6716716480484458e-07   2.6599610281305964e-07   2.6290576514810943e-07   2.6175065552299792e-07   2.5836758535