<?xml version="1.0"?>
<VTKFile type="UnstructuredGrid"  version="0.1"  >
<UnstructuredGrid>
<Piece  NumberOfPoints="16641" NumberOfCells="32768">
<Points>
<DataArray  type="Float64"  NumberOfComponents="3"  format="ascii">0 0 0  0.0078125 0 0  0.015625 0 0  0.0234375 0 0  0.03125 0 0  0.0390625 0 0  0.046875 0 0  0.0546875 0 0  0.0625 0 0  0.0703125 0 0  0.078125 0 0  0.0859375 0 0  0.09375 0 0  0.1015625 0 0  0.109375 0 0  0.1171875 0 0  0.125 0 0  0.1328125 0 0  0.140625 0 0  0.1484375 0 0  0.15625 0 0  0.1640625 0 0  0.171875 0 0  0.1796875 0 0  0.1875 0 0  0.1953125 0 0  0.203125 0 0  0.2109375 0 0  0.21875 0 0  0.2265625 0 0  0.234375 0 0  0.2421875 0 0  0.25 0 0  0.2578125 0 0  0.265625 0 0  0.2734375 0 0  0.28125 0 0  0.2890625 0 0  0.296875 0 0  0.3046875 0 0  0.3125 0 0  0.3203125 0 0  0.328125 0 0  0.3359375 0 0  0.34375 0 0  0.3515625 0 0  0.359375 0 0  0.3671875 0 0  0.375 0 0  0.3828125 0 0  0.390625 0 0  0.3984375 0 0  0.40625 0 0  0.4140625 0 0  0.421875 0 0  0.4296875 0 0  0.4375 0 0  0.4453125 0 0  0.453125 0 0  0.4609375 0 0  0.46875 0 0  0.4765625 0 0  0.484375 0 0  0.4921875 0 0  0.5 0 0  0.5078125 0 0  0.515625 0 0  0.5234375 0 0  0.53125 0 0  0.5390625 0 0  0.546875 0 0  0.5546875 0 0  0.5625 0 0  0.5703125 0 0  0.578125 0 0  0.5859375 0 0  0.59375 0 0  0.6015625 0 0  0.609375 0 0  0.6171875 0 0  0.625 0 0  0.6328125 0 0  0.640625 0 0  0.6484375 0 0  0.65625 0 0  0.6640625 0 0  0.671875 0 0  0.6796875 0 0  0.6875 0 0  0.6953125 0 0  0.703125 0 0  0.7109375 0 0  0.71875 0 0  0.7265625 0 0  0.734375 0 0  0.7421875 0 0  0.75 0 0  0.7578125 0 0  0.765625 0 0  0.7734375 0 0  0.78125 0 0  0.7890625 0 0  0.796875 0 0  0.8046875 0 0  0.8125 0 0  0.8203125 0 0  0.828125 0 0  0.8359375 0 0  0.84375 0 0  0.8515625 0 0  0.859375 0 0  0.8671875 0 0  0.875 0 0  0.8828125 0 0  0.890625 0 0  0.8984375 0 0  0.90625 0 0  0.9140625 0 0  0.921875 0 0  0.9296875 0 0  0.9375 0 0  0.9453125 0 0  0.953125 0 0  0.9609375 0 0  0.96875 0 0  0.9765625 0 0  0.984375 0 0  0.9921875 0 0  1 0 0  0 0.0078125 0  0.0078125 0.0078125 0  0.015625 0.0078125 0  0.0234375 0.0078125 0  0.03125 0.0078125 0  0.0390625 0.0078125 0  0.046875 0.0078125 0  0.0546875 0.0078125 0  0.0625 0.0078125 0  0.0703125 0.0078125 0  0.078125 0.0078125 0  0.0859375 0.0078125 0  0.09375 0.0078125 0  0.1015625 0.0078125 0  0.109375 0.0078125 0  0.1171875 0.0078125 0  0.125 0.0078125 0  0.1328125 0.0078125 0  0.140625 0.0078125 0  0.1484375 0.0078125 0  0.15625 0.0078125 0  0.1640625 0.0078125 0  0.171875 0.0078125 0  0.1796875 0.0078125 0  0.1875 0.0078125 0  0.1953125 0.0078125 0  0.203125 0.0078125 0  0.2109375 0.0078125 0  0.21875 0.0078125 0  0.2265625 0.0078125 0  0.234375 0.0078125 0  0.2421875 0.0078125 0  0.25 0.0078125 0  0.2578125 0.0078125 0  0.265625 0.0078125 0  0.2734375 0.0078125 0  0.28125 0.0078125 0  0.2890625 0.0078125 0  0.296875 0.0078125 0  0.3046875 0.0078125 0  0.3125 0.0078125 0  0.3203125 0.0078125 0  0.328125 0.0078125 0  0.3359375 0.0078125 0  0.34375 0.0078125 0  0.3515625 0.0078125 0  0.359375 0.0078125 0  0.3671875 0.0078125 0  0.375 0.0078125 0  0.3828125 0.0078125 0  0.390625 0.0078125 0  0.3984375 0.0078125 0  0.40625 0.0078125 0  0.4140625 0.0078125 0  0.421875 0.0078125 0  0.4296875 0.0078125 0  0.4375 0.0078125 0  0.4453125 0.0078125 0  0.453125 0.0078125 0  0.4609375 0.0078125 0  0.46875 0.0078125 0  0.4765625 0.0078125 0  0.484375 0.0078125 0  0.4921875 0.0078125 0  0.5 0.0078125 0  0.5078125 0.0078125 0  0.515625 0.0078125 0  0.5234375 0.0078125 0  0.53125 0.0078125 0  0.5390625 0.0078125 0  0.546875 0.0078125 0  0.5546875 0.0078125 0  0.5625 0.0078125 0  0.5703125 0.0078125 0  0.578125 0.0078125 0  0.5859375 0.0078125 0  0.59375 0.0078125 0  0.6015625 0.0078125 0  0.609375 0.0078125 0  0.6171875 0.0078125 0  0.625 0.0078125 0  0.6328125 0.0078125 0  0.640625 0.0078125 0  0.6484375 0.0078125 0  0.65625 0.0078125 0  0.6640625 0.0078125 0  0.671875 0.0078125 0  0.6796875 0.0078125 0  0.6875 0.0078125 0  0.6953125 0.0078125 0  0.703125 0.0078125 0  0.7109375 0.0078125 0  0.71875 0.0078125 0  0.7265625 0.0078125 0  0.734375 0.0078125 0  0.7421875 0.0078125 0  0.75 0.0078125 0  0.7578125 0.0078125 0  0.765625 0.0078125 0  0.7734375 0.0078125 0  0.78125 0.0078125 0  0.7890625 0.0078125 0  0.796875 0.0078125 0  0.8046875 0.0078125 0  0.8125 0.0078125 0  0.8203125 0.0078125 0  0.828125 0.0078125 0  0.8359375 0.0078125 0  0.84375 0.0078125 0  0.8515625 0.0078125 0  0.859375 0.0078125 0  0.8671875 0.0078125 0  0.875 0.0078125 0  0.8828125 0.0078125 0  0.890625 0.0078125 0  0.8984375 0.0078125 0  0.90625 0.0078125 0  0.9140625 0.0078125 0  0.921875 0.0078125 0  0.9296875 0.0078125 0  0.9375 0.0078125 0  0.9453125 0.0078125 0  0.953125 0.0078125 0  0.9609375 0.0078125 0  0.96875 0.0078125 0  0.9765625 0.0078125 0  0.984375 0.0078125 0  0.9921875 0.0078125 0  1 0.0078125 0  0 0.015625 0  0.0078125 0.015625 0  0.015625 0.015625 0  0.0234375 0.015625 0  0.03125 0.015625 0  0.0390625 0.015625 0  0.046875 0.015625 0  0.0546875 0.015625 0  0.0625 0.015625 0  0.0703125 0.015625 0  0.078125 0.015625 0  0.0859375 0.015625 0  0.09375 0.015625 0  0.1015625 0.015625 0  0.109375 0.015625 0  0.1171875 0.015625 0  0.125 0.015625 0  0.1328125 0.015625 0  0.140625 0.015625 0  0.1484375 0.015625 0  0.15625 0.015625 0  0.1640625 0.015625 0  0.171875 0.015625 0  0.1796875 0.015625 0  0.1875 0.015625 0  0.1953125 0.015625 0  0.203125 0.015625 0  0.2109375 0.015625 0  0.21875 0.015625 0  0.2265625 0.015625 0  0.234375 0.015625 0  0.2421875 0.015625 0  0.25 0.015625 0  0.2578125 0.015625 0  0.265625 0.015625 0  0.2734375 0.015625 0  0.28125 0.015625 0  0.2890625 0.015625 0  0.296875 0.015625 0  0.3046875 0.015625 0  0.3125 0.015625 0  0.3203125 0.015625 0  0.328125 0.015625 0  0.3359375 0.015625 0  0.34375 0.015625 0  0.3515625 0.015625 0  0.359375 0.015625 0  0.3671875 0.015625 0  0.375 0.015625 0  0.3828125 0.015625 0  0.390625 0.015625 0  0.3984375 0.015625 0  0.40625 0.015625 0  0.4140625 0.015625 0  0.421875 0.015625 0  0.4296875 0.015625 0  0.4375 0.015625 0  0.4453125 0.015625 0  0.453125 0.015625 0  0.4609375 0.015625 0  0.46875 0.015625 0  0.4765625 0.015625 0  0.484375 0.015625 0  0.4921875 0.015625 0  0.5 0.015625 0  0.5078125 0.015625 0  0.515625 0.015625 0  0.5234375 0.015625 0  0.53125 0.015625 0  0.5390625 0.015625 0  0.546875 0.015625 0  0.5546875 0.015625 0  0.5625 0.015625 0  0.5703125 0.015625 0  0.578125 0.015625 0  0.5859375 0.015625 0  0.59375 0.015625 0  0.6015625 0.015625 0  0.609375 0.015625 0  0.6171875 0.015625 0  0.625 0.015625 0  0.6328125 0.015625 0  0.640625 0.015625 0  0.6484375 0.015625 0  0.65625 0.015625 0  0.6640625 0.015625 0  0.671875 0.015625 0  0.6796875 0.015625 0  0.6875 0.015625 0  0.6953125 0.015625 0  0.703125 0.015625 0  0.7109375 0.015625 0  0.71875 0.015625 0  0.7265625 0.015625 0  0.734375 0.015625 0  0.7421875 0.015625 0  0.75 0.015625 0  0.7578125 0.015625 0  0.765625 0.015625 0  0.7734375 0.015625 0  0.78125 0.015625 0  0.7890625 0.015625 0  0.796875 0.015625 0  0.8046875 0.015625 0  0.8125 0.015625 0  0.8203125 0.015625 0  0.828125 0.015625 0  0.8359375 0.015625 0  0.84375 0.015625 0  0.8515625 0.015625 0  0.859375 0.015625 0  0.8671875 0.015625 0  0.875 0.015625 0  0.8828125 0.015625 0  0.890625 0.015625 0  0.8984375 0.015625 0  0.90625 0.015625 0  0.9140625 0.015625 0  0.921875 0.015625 0  0.9296875 0.015625 0  0.9375 0.015625 0  0.9453125 0.015625 0  0.953125 0.015625 0  0.9609375 0.015625 0  0.96875 0.015625 0  0.9765625 0.015625 0  0.984375 0.015625 0  0.9921875 0.015625 0  1 0.015625 0  0 0.0234375 0  0.0078125 0.0234375 0  0.015625 0.0234375 0  0.0234375 0.0234375 0  0.03125 0.0234375 0  0.0390625 0.0234375 0  0.046875 0.0234375 0  0.0546875 0.0234375 0  0.0625 0.0234375 0  0.0703125 0.0234375 0  0.078125 0.0234375 0  0.0859375 0.0234375 0  0.09375 0.0234375 0  0.1015625 0.0234375 0  0.109375 0.0234375 0  0.1171875 0.0234375 0  0.125 0.0234375 0  0.1328125 0.0234375 0  0.140625 0.0234375 0  0.1484375 0.0234375 0  0.15625 0.0234375 0  0.1640625 0.0234375 0  0.171875 0.0234375 0  0.1796875 0.0234375 0  0.1875 0.0234375 0  0.1953125 0.0234375 0  0.203125 0.0234375 0  0.2109375 0.0234375 0  0.21875 0.0234375 0  0.2265625 0.0234375 0  0.234375 0.0234375 0  0.2421875 0.0234375 0  0.25 0.0234375 0  0.2578125 0.0234375 0  0.265625 0.0234375 0  0.2734375 0.0234375 0  0.28125 0.0234375 0  0.2890625 0.0234375 0  0.296875 0.0234375 0  0.3046875 0.0234375 0  0.3125 0.0234375 0  0.3203125 0.0234375 0  0.328125 0.0234375 0  0.3359375 0.0234375 0  0.34375 0.0234375 0  0.3515625 0.0234375 0  0.359375 0.0234375 0  0.3671875 0.0234375 0  0.375 0.0234375 0  0.3828125 0.0234375 0  0.390625 0.0234375 0  0.3984375 0.0234375 0  0.40625 0.0234375 0  0.4140625 0.0234375 0  0.421875 0.0234375 0  0.4296875 0.0234375 0  0.4375 0.0234375 0  0.4453125 0.0234375 0  0.453125 0.0234375 0  0.4609375 0.0234375 0  0.46875 0.0234375 0  0.4765625 0.0234375 0  0.484375 0.0234375 0  0.4921875 0.0234375 0  0.5 0.0234375 0  0.5078125 0.0234375 0  0.515625 0.0234375 0  0.5234375 0.0234375 0  0.53125 0.0234375 0  0.5390625 0.0234375 0  0.546875 0.0234375 0  0.5546875 0.0234375 0  0.5625 0.0234375 0  0.5703125 0.0234375 0  0.578125 0.0234375 0  0.5859375 0.0234375 0  0.59375 0.0234375 0  0.6015625 0.0234375 0  0.609375 0.0234375 0  0.6171875 0.0234375 0  0.625 0.0234375 0  0.6328125 0.0234375 0  0.640625 0.0234375 0  0.6484375 0.0234375 0  0.65625 0.0234375 0  0.6640625 0.0234375 0  0.671875 0.0234375 0  0.6796875 0.0234375 0  0.6875 0.0234375 0  0.6953125 0.0234375 0  0.703125 0.0234375 0  0.7109375 0.0234375 0  0.71875 0.0234375 0  0.7265625 0.0234375 0  0.734375 0.0234375 0  0.7421875 0.0234375 0  0.75 0.0234375 0  0.7578125 0.0234375 0  0.765625 0.0234375 0  0.7734375 0.0234375 0  0.78125 0.0234375 0  0.7890625 0.0234375 0  0.796875 0.0234375 0  0.8046875 0.0234375 0  0.8125 0.0234375 0  0.8203125 0.0234375 0  0.828125 0.0234375 0  0.8359375 0.0234375 0  0.84375 0.0234375 0  0.8515625 0.0234375 0  0.859375 0.0234375 0  0.8671
[...]
<CellData  Scalars="f_95"> 
<DataArray  type="Float64"  Name="f_95"  format="ascii">4.2955966227206216e-06   4.2916082682662941e-06   4.2904260070623014e-06   4.2863729327947522e-06   4.2800963760714755e-06   4.2760019660106480e-06   4.2646326656389703e-06   4.2605121716712756e-06   4.2440721695945611e-06   4.2399372125679014e-06   4.2184644535159507e-06   4.2143247048159048e-06   4.1878712372243612e-06   4.1837351973165192e-06   4.1523662472100399e-06   4.1482416453065113e-06   4.1120350397302317e-06   4.1079290544163470e-06   4.0669747951845070e-06   4.0628941828741125e-06   4.0172940843499379e-06   4.0132452568002054e-06   3.9631126070896609e-06   3.9591016790455159e-06   3.9045609041931950e-06   3.9005937226630085e-06   3.8417800430585053e-06   3.8378622048595494e-06   3.7749212779884926e-06   3.7710581395751126e-06   3.7041456859245054e-06   3.7003423680490982e-06   3.6296237785007468e-06   3.6258851673578244e-06   3.5515350913592522e-06   3.5478658373458910e-06   3.4700677517164116e-06   3.4664722665831209e-06   3.3854180252238707e-06   3.3819004781699741e-06   3.2977898432187337e-06   3.2943541563389050e-06   3.2073943115014352e-06   3.2040441548821662e-06   3.1144492018272042e-06   3.1111879885150591e-06   3.0191784273343049e-06   3.0160093083546212e-06   2.9218115031744867e-06   2.9187373627321968e-06   2.8225829936480119e-06   2.8196064446133291e-06   2.7217319471687485e-06   2.7188553269364354e-06   2.6195013204281309e-06   2.6167266872142000e-06   2.5161373931401382e-06   2.5134665227675432e-06   2.4118891747803241e-06   2.4093235579994542e-06   2.3070078047458845e-06   2.3045486451277435e-06   2.2017459473845220e-06   2.1993941597996586e-06   2.0963571833460792e-06   2.0941133930703145e-06   1.9910953987272366e-06   1.9889599411765104e-06   1.8862141734776873e-06   1.8841870945795837e-06   1.7819661705429127e-06   1.7800472277764741e-06   1.6786025272146511e-06   1.6767911912936114e-06   1.5763722501550712e-06   1.5746677073805403e-06   1.4755216155525804e-06   1.4739227708143290e-06   1.3762935758542094e-06   1.3747990562952074e-06   1.2789271745044736e-06   1.2775353338281274e-06   1.1836569700979941e-06   1.1823658935189241e-06   1.0907124713374679e-06   1.0895199811619837e-06   1.0003175841543663e-06   9.9922124598019075e-07   9.1269007232668922e-07   9.1168720184546270e-07   8.2804103289128929e-07   8.2712870328548560e-07   7.4657438761729011e-07   7.4574943752355412e-07   6.6848639176224750e-07   6.6774543379491632e-07   5.9396516129727615e-07   5.9330459110293169e-07   5.2319021973951113e-07   5.2260622556359678e-07   4.5633206568177405e-07   4.5582063843146932e-07   3.9355176206464107e-07   3.9310870583129636e-07   3.3500054817697864e-07   3.3462149120621829e-07   2.8081947532251166e-07   2.8049988139824720e-07   2.3113906702807691e-07   2.3087424724684489e-07   1.8607900461336721e-07   1.8586412951925607e-07   1.4574783887908063e-07   1.4557795093307729e-07   1.1024272860909862e-07   1.1011275496046754e-07   7.9649206514226245e-08   7.9553972047326487e-08   5.4040973184768877e-08   5.3975213806825912e-08   3.3479719545432353e-08   3.3438095686522439e-08   1.8014978241832306e-08   1.7992088534743640e-08   7.6840043161645229e-09   7.6743994242572548e-09   2.5116854595275009e-09   2.5098820182293694e-09   2.5104820571768250e-09   2.5109766989785479e-09   7.6803971712109160e-09   7.6776805994708146e-09   1.8008976532624103e-08   1.7997547611691921e-08   3.3471338543414084e-08   3.3445718371924679e-08   5.4030234215670559e-08   5.3984980149788933e-08   7.9636136904102139e-08   7.9565856497995584e-08   1.1022736161504580e-07   1.1012672644621278e-07   1.4573021360474643e-07   1.4559397295038537e-07   1.8605916590970481e-07   1.8588216024380199e-07   2.3111706537936103e-07   2.3089423965624523e-07   2.8079536671796932e-07   2.8052178341679483e-07   3.3497439396818199e-07   3.3464524585823396e-07   3.9352362880910040e-07   3.9313425141535429e-07   4.5630202497306310e-07   4.5584790870679021e-07   5.2315834802425301e-07   5.2263514995423344e-07   5.9393153967933482e-07   5.9333509491032900e-07   6.6845110579472413e-07   6.6777743843439289e-07   7.4653752708264441e-07   7.4578286076310214e-07   8.2800269157020021e-07   8.2716345950564119e-07   9.1265034775546164e-07   9.1172320231001838e-07   1.0002765773730041e-06   9.9925839911473091e-07   1.0906702866269549e-06   1.0895581928514988e-06   1.1836137147089621e-06   1.1824050674070177e-06   1.2788829583767562e-06   1.2775753716362735e-06   1.3762485113284270e-06   1.3748398581422383e-06   1.4754758170743766e-06   1.4739642355516211e-06   1.5763258339726994e-06   1.5747097329311197e-06   1.6785556110694435e-06   1.6768336750016598e-06   1.7819188733550538e-06   1.7800900667578690e-06   1.8861666150262965e-06   1.8842301860826079e-06   1.9910476993266722e-06   1.9890031829473223e-06   2.0963094635183828e-06   2.0941566837200838e-06   2.2016983275285718e-06   2.1994373991672986e-06   2.3069604048039512e-06   2.3045917346584231e-06   2.4118421139037500e-06   2.4093664011108611e-06   2.5160907893530119e-06   2.5135090252203910e-06   2.6194552902905343e-06   2.6167687574789312e-06   2.7216866054406072e-06   2.7188968765548125e-06   2.8225384529524536e-06   2.8196473885563037e-06   2.9217678736632699e-06   2.9187776197507911e-06   3.0191358163545561e-06   3.0160488013201436e-06   3.1144077135906883e-06   3.1112266447504564e-06   3.2073540467556245e-06   3.2040819064833760e-06   3.2977508989210899e-06   3.2943909404771581e-06   3.3853804942195857e-06   3.3819362373808843e-06   3.4700317224192261e-06   3.4665069490386377e-06   3.5515006474344111e-06   3.5478993971029880e-06   3.6295909985537873e-06   3.6259175645854794e-06   3.7041146431899468e-06   3.7003735692285934e-06   3.7748920400215858e-06   3.7710881176705682e-06   3.8417526714275121e-06   3.8378909394531918e-06   3.9045354541702017e-06   3.9006212000544721e-06   3.9630891273374506e-06   3.9591278922995768e-06   4.0172726165988737e-06   4.0132702057389782e-06   4.0669553738952232e-06   4.0629178739892841e-06   4.1120176917295229e-06   4.1079515006674197e-06   4.1523509912846717e-06   4.1482628657541143e-06   4.1878580836455669e-06   4.1837552164880966e-06   4.2184534034499600e-06   4.2143435517191968e-06   4.2440632143143665e-06   4.2399549196841431e-06   4.2646257853737724e-06   4.2605287773206534e-06   4.2800915381294049e-06   4.2760175409420242e-06   4.2904231622679855e-06   4.2863877402319347e-06   4.2955956969484521e-06   4.2916234647073565e-06   4.2916130113954513e-06   4.2825895636418636e-06   4.2863910570781670e-06   4.2773267729409501e-06   4.2760412061103989e-06   4.2669520219119346e-06   4.2605802392577830e-06   4.2514819379921677e-06   4.2400417805595292e-06   4.2309493108350906e-06   4.2144733871386307e-06   4.2054009387182122e-06   4.1839355277960946e-06   4.1748966531336703e-06   4.1485010567064524e-06   4.1395087728344392e-06   4.1082548579141215e-06   4.0993217190720160e-06   4.0632935480636101e-06   4.0544316923530551e-06   4.0137251922529318e-06   4.0049463686327235e-06   3.9596690134509295e-06   3.9509845947497603e-06   3.9012550865685041e-06   3.8926760727844097e-06   3.8386240130321946e-06   3.8301610279570316e-06   3.7719265740108398e-06   3.7635898573042578e-06   3.7013233616565483e-06   3.6931227578631763e-06   3.6269843883444001e-06   3.6189293339271824e-06   3.5490886743353609e-06   3.5411881834867984e-06   3.4678238144934944e-06   3.4600864643032413e-06   3.3833855248792762e-06   3.3758194402828854e-06   3.2959771701662495e-06   3.2885900090013534e-06   3.2058092729103097e-06   3.1986082113356711e-06   3.1130990057787104e-06   3.1060907242552521e-06   3.0180696679174253e-06   3.0112603379163481e-06   2.9209501466737663e-06   2.9143454182347412e-06   2.8219743659454987e-06   2.8155793561939001e-06   2.7213807224655760e-06   2.7152000051826201e-06   2.6194115113646661e-06   2.6134491076674787e-06   2.5163123423793200e-06   2.5105717125910528e-06   2.4123315481109048e-06   2.4068155848481173e-06   2.3077195857509567e-06   2.3024306082824718e-06   2.2027284336947650e-06   2.1976681836068775e-06   2.0976109845226423e-06   2.0927806226964778e-06   1.9926204357771043e-06   1.9880205407273792e-06   1.8880096800086051e-06   1.8836402475672237e-06   1.7840306955854546e-06   1.7798911399597225e-06   1.6809339396810311e-06   1.6770230958811034e-06   1.5789677449520561e-06   1.5752838725842369e-06   1.4783777213171334e-06   1.4749185097480783e-06   1.3794061643133857e-06   1.3761687391842030e-06   1.2822914714243075e-06   1.2792724025083780e-06   1.1872675678036028e-06   1.1844628781927174e-06   1.0945633427718080e-06   1.0919685193567090e-06   1.0044020984428399e-06   1.0020121036861190e-06   9.1700101180698547e-07   9.1481029676265998e-07   8.3257061157419727e-07   8.3057313012929712e-07   7.5131427102233933e-07   7.4950349533031220e-07   6.7342771809181980e-07   6.7179665515621120e-07   5.9909856388851235e-07   5.9763977325853676e-07   5.2850585074066313e-07   5.2721146328355506e-07   4.6181962090305019e-07   4.6068135858993391e-07   3.9920050692873749e-07   3.9820970361341755e-07   3.4079934471936034e-07   3.3994696783724165e-07   2.8675681016798270e-07   2.8603348331470033e-07   2.3720308027863301e-07   2.3659910661197217e-07   1.9225751957510694e-07   1.9176290598427486e-07   1.5202839255827376e-07   1.5163287454352525e-07   1.1661260290092494e-07   1.1630567010185302e-07   8.6095460011118027e-08   8.5866382327393711e-08   6.0550473524301170e-08   6.0388327760917086e-08   4.0039176221465561e-08   3.9932873199400265e-08   2.4610975798991657e-08   2.4549287864239918e-08   1.4303035847745297e-08   1.4274624713834534e-08   9.1401863256552773e-09   9.1336311843364624e-09   9.1348637444943396e-09   9.1386895756073374e-09   1.4287081210039050e-08   1.4289787225175903e-08   2.4584428391122196e-08   2.4574516541713223e-08   4.0002101415459720e-08   3.9968104898839280e-08   6.0502962621491979e-08   6.0433474316138287e-08   8.6037630022169500e-08   8.5921330784640340e-08   1.1654459626517529e-07   1.1637028302176557e-07   1.5195037680092587e-07   1.5170699036646612e-07   1.9216968690601337e-07   1.9184633946407577e-07   2.3710564712887630e-07   2.3669164930920838e-07   2.8665001667345307e-07   2.8613490415805993e-07   3.4068345414099651e-07   3.4005701374142139e-07   3.9907580502269860e-07   3.9832810016071024e-07   4.6168641523415402e-07   4.6080781077051242e-07   5.2836446994651492e-07   5.2734565629309705e-07   5.9894935688760656e-07   5.9778137335094386e-07   6.7327105325302134e-07   6.7194531054877106e-07   7.5115053527623018e-07   7.4965883716454872e-07   8.3240020948913811e-07   8.3073477347968501e-07   9.1682436462074442e-07   9.1497784169343804e-07   1.0042196430506401e-06   1.0021851363507061e-06   1.0943755306846576e-06   1.0921466131442839e-06   1.1870748640628951e-06   1.1846455949136714e-06   1.2820943534938570e-06   1.2794592936172975e-06   1.3792051209325005e-06   1.3763593470318911e-06   1.4781732513340555e-06   1.4751123688788116e-06   1.5787603561293121e-06   1.5754805110480483e-06   1.6807241474817109e-06   1.6772220365813203e-06   1.7838190219361970e-06   1.7800919020171471e-06   1.8877966520511744e-06   1.8838423477040238e-06   1.9924065846069702e-06   1.9882234946696174e-06   2.0973968439150511e-06   2.0929839465898226e-06   2.2025145388164852e-06   2.1978713954260197e-06   2.3075064718811271e-06   2.3026332292684941e-06   2.4121197493472603e-06   2.4070171409239485e-06   2.5161023903490347e-06   2.5107717357870196e-06   2.6192039339363458e-06   2.6136471375316344e-06   2.7211760424646005e-06   2.7153955901785484e-06   2.8217730998765899e-06   2.8157720550868134e-06   2.9207528034524419e-06   2.9145348014468511e-06   3.0178767476097290e-06   3.0114459888651146e-06   3.1129109983532612e-06   3.1062722406490474e-06   3.2056266570047594e-06   3.1987852064425219e-06   3.2958004118622666e-06   3.2887621128718446e-06   3.3832150764942163e-06   3.3759863009198255e-06   3.4676601133865400e-06   3.4602477487868804e-06   3.5489321417231739e-06   3.5413435790372331e-06   3.6268354281293507e-06   3.6190785488986942e-06   3.7011823592619325e-06   3.6932655226734513e-06   3.7717938952183626e-06   3.7637259252803399e-06   3.8385000028142489e-06   3.8302901760984484e-06   3.9011400679092691e-06   3.8927981024378113e-06   3.9595632861312725e-06   3.9510993321790415e-06   4.0136290315837437e-06   4.0050536654919448e-06   4.0632072035233549e-06   4.0545314260476322e-06   4.1081785516256792e-06   4.0994137930406453e-06   4.1484349816569728e-06   4.1395931168206878e-06   4.1838798456227991e-06   4.1749732237278044e-06   4.2144282252753544e-06   4.2054697210673412e-06   4.2400072288702277e-06   4.2310103243251789e-06   4.2605563491776163e-06   4.2515352537563595e-06   4.2760280124369875e-06   4.2669978089151425e-06   4.2863887302560104e-06   4.2773653907627446e-06   4.2916225455544632e-06   4.2826216089886203e-06   4.2826010532838736e-06   4.2685717381192553e-06   4.2773680589154121e-06   4.2633028496181087e-06   4.2670366506830844e-06   4.2529531569743137e-06   4.2516233628715028e-06   4.2375407288702849e-06   4.2311608639323413e-06   4.2170983749020359e-06   4.2056958006702388e-06   4.1916725264223938e-06   4.1752878215242747e-06   4.1613225099522392e-06   4.1400090301215697e-06   4.1261200664163225e-06   4.0999436005748932e-06   4.0861489853691631e-06   4.0551874546444169e-06   4.0415047867408637e-06   4.0058479585496993e-06   3.9922944169614484e-06   3.9520436191659138e-06   3.9386359427912796e-06   3.8939037692486869e-06   3.8806582340373261e-06   3.8315682362848159e-06   3.8185006303142551e-06   3.7651869921957991e-06   3.7523125892400257e-06   3.6949197826171892e-06   3.6822533147777322e-06   3.6209357353120330e-06   3.6084913652118736e-06   3.5434129478289271e-06   3.5312042407944799e-06   3.4625380548486280e-06   3.4505779514335333e-06   3.3785057758836326e-06   3.3668065650236552e-06   3.2915184441768187e-06   3.2800917372248976e-06   3.2017855177543475e-06   3.1906422235939005e-06   3.1095230736795379e-06   3.0986733750939785e-06   3.0149532866497561e-06   3.0044066180811039e-06   2.9183038931072218e-06   2.9080689199389667e-06   2.8198076421169279e-06   2.8098922415862240e-06   2.7197017343025616e-06   2.7101129781172031e-06   2.6182272501413555e-06   2.6089713889019930e-06   2.5156285690053349e-06   2.5067110184783454e-06   2.4121527802975650e-06   2.4035781096098551e-06   2.3080490881213501e-06   2.2998210099088836e-06   2.2035682108808381e-06   2.1956895734458097e-06   2.0989617772602770e-06   2.0914345587569495e-06   1.9944817200488042e-06   1.9873070247154947e-06   1.8903796692131609e-06   1.8835577256962064e-06   1.7869063457577301e-06   1.7804365074956539e-06   1.6843109577446707e-06   1.6781917054475044e-06   1.5828405999856818e-06   1.5770695462000488e-06   1.4827396588197632e-06   1.4773135545670586e-06   1.3842492234250777e-06   1.3791639668989021e-06   1.2876065050683570e-06   1.2828571523794335e-06   1.1930442657034958e-06   1.1886250436409319e-06   1.1007902572745116e-06   1.0966945780579718e-06   1.0110666731081903e-06   1.0072871510910746e-06   9.2408961267521589e-07   9.2061808296789362e-07   8.4006856104213015e-07   8.3689609999986577e-07   7.5920588424843374e-07   7.5632283178848909e-07   6.8169634183806026e-07   6.7909232551572564e-07   6.0772661770427297e-07   6.0539057851067741e-07   5.3747487039696627e-07   5.3539509019454829e-07   4.7111030395233548e-07   4.6927443450447584e-07   4.0879276030610659e-07   4.0718785381245238e-07   3.5067233424767762e-07   3.4928487532229388e-07   2.9688901185727682e-07   2.9570495087152050e-07   2.4757233329326078e-07   2.4657712100187646e-07   2.0284108074038259e-07   2.0201970410777535e-07   1.6280299227517390e-07   1.6214001141749180e-07   1.2755450233136358e-07   1.2703408848532309e-07   9.7180509400367587e-08   9.6786483825086756e-08   7.1754171513443493e-08   7.1470045238657749e-08   5.1336730011217434e-08   5.1145744330212709e-08   3.5977362017016119e-08   3.5862529630918513e-08   2.5713061973583451e-08   2.5657208686331431e-08   2.0568552524962827e-08   2.0554359392374240e-08   2.0556224962002874e-08   2.0566270791200192e-08   2.5676109373716657e-08   2.5692913471825224e-08   3.5915874573931428e-08   3.5921939646117903e-08   5.1250857808131991e-08   5.1228712898517531e-08   7.1644124164819723e-08   7.1576367541091568e-08   9.7046555550313900e-08   9.6915897427907482e-08   1.2739696901222423e-07   1.2718627401542463e-07   1.6262226412509103e-07   1.6231459338571960e-07   2.0263759908651684e-07   2.0221625187653847e-07   2.4734659509543228e-07   2.4679514989659840e-07   2.9664156852390953e-07   2.9594392343451359e-07   3.5040379031757049e-07   3.4954420270081271e-07   4.0850377200667897e-07   4.0746689728524396e-07   4.7080157763485666e-07   4.6957250713835185e-07   5.3714716085274077e-07   5.3571145862940887e-07   6.0738072636541326e-07   6.0572446486801405e-07   6.8133311486656107e-07   6.7944290942634092e-07   7.5882621052389903e-07   7.5668925253707762e-07   8.3967337004555422e-07   8.3727745877881819e-07   9.2367987227878245e-07   9.2101344523472439e-07   1.0106433872716867e-06   1.0076955490308048e-06   1.1003544636617906e-06   1.0971150131314491e-06   1.1925970332186285e-06   1.1890564892333017e-06   1.2871489313186606e-06   1.2832985565196301e-06   1.3837824321116716e-06   1.3796142550564992e-06   1.4822647970811477e-06   1.4777716325290679e-06   1.5823588356733007e-06   1.5775343029983684e-06   1.6838234766595137e-06   1.6786620163472327e-06   1.7864143488397535e-06   1.7809112370290284e-06   1.8898843696969212e-06   1.8840357307413737e-06   1.9939843405933138e-06   1.9877871576031664e-06   2.0984635470576532e-06   2.0919156704075081e-06   2.2030703627347231e-06   2.1961705165185316e-06   2.3075528555401143e-06   2.3003006419638268e-06   2.4116593945613398e-06   2.4040552962655546e-06   2.5151392562493969e-06   2.5071846365677857e-06   2.6177432284413847e-06   2.6094403296042975e-06   2.7192242107730468e-06   2.7105761500666302e-06   2.8193378100340596e-06   2.8103485739458863e-06   2.9178429290474076e-06   2.9085173654277910e-06   3.0145023476658643e-06   3.0048461559453339e-06   3.1090832944984630e-06   3.0991030140188683e-06   3.2013580080203001e-06   3.1910610045350430e-06   3.2911042857295765e-06   3.2804987361599391e-06   3.3781060200721093e-06   3.3672008956075578e-06   3.4621537198953100e-06   3.4509587675486382e-06   3.5430450162318889e-06   3.5315707389877875e-06   3.6205851512850623e-06   3.6088427870027249e-06   3.6945874495734649e-06   3.6825889488365927e-06   3.7648737702579551e-06   3.7526317734181567e-06   3.8312749398213940e-06   3.8188027535237559e-06   3.8936311644262637e-06   3.8809427379735177e-06   3.9517924214903638e-06   3.9389023234963848e-06   4.0056188303892389e-06   3.9925422262508488e-06   4.0549810026944625e-06   4.0417336335204138e-06   4.0997603732575669e-06   4.0863585369538200e-06   4.1398495149316367e-06   4.1263100500917943e-06   4.1751524425140587e-06   4.1614927153252740e-06   4.2055849168409232e-06   4.1918228097661518e-06   4.2310747711445251e-06   4.2172286677645099e-06   4.2515623068731719e-06   4.2376510540252168e-06   4.2670008677872467e-06   4.2530436520554884e-06   4.2773578628731264e-06   4.2633737749382691e-06   4.2826168795870957e-06   4.2686233466354550e-06   4.2685928852225905e-06   4.2495909981929826e-06   4.2633759998694975e-06   4.2443319940147926e-06   4.2530976114162192e-06   4.2340336398872155e-06   4.2377756233644271e-06   4.2187154542586122e-06   4.2174426351690299e-06   4.1984105385748874e-06   4.1921448244242314e-06   4.1731651168970132e-06   4.1619412200160546e-06   4.1430380629939095e-06   4.1269032212836993e-06   4.1081005116881587e-06   4.0871142325057991e-06   4.0684355289081269e-06   4.0426693452091150e-06   4.0241378092129114e-06   3.9936750351069817e-06   3.9753133798361666e-06   3.9402488569465426e-06   3.9220792989760193e-06   3.8825191284060774e-06   3.8645633414501931e-06   3.8206245981740890e-06   3.8029036677791876e-06   3.75471409558197