<?xml version="1.0"?>
<VTKFile type="UnstructuredGrid"  version="0.1"  >
<UnstructuredGrid>
<Piece  NumberOfPoints="16641" NumberOfCells="32768">
<Points>
<DataArray  type="Float64"  NumberOfComponents="3"  format="ascii">0 0 0  0.0078125 0 0  0.015625 0 0  0.0234375 0 0  0.03125 0 0  0.0390625 0 0  0.046875 0 0  0.0546875 0 0  0.0625 0 0  0.0703125 0 0  0.078125 0 0  0.0859375 0 0  0.09375 0 0  0.1015625 0 0  0.109375 0 0  0.1171875 0 0  0.125 0 0  0.1328125 0 0  0.140625 0 0  0.1484375 0 0  0.15625 0 0  0.1640625 0 0  0.171875 0 0  0.1796875 0 0  0.1875 0 0  0.1953125 0 0  0.203125 0 0  0.2109375 0 0  0.21875 0 0  0.2265625 0 0  0.234375 0 0  0.2421875 0 0  0.25 0 0  0.2578125 0 0  0.265625 0 0  0.2734375 0 0  0.28125 0 0  0.2890625 0 0  0.296875 0 0  0.3046875 0 0  0.3125 0 0  0.3203125 0 0  0.328125 0 0  0.3359375 0 0  0.34375 0 0  0.3515625 0 0  0.359375 0 0  0.3671875 0 0  0.375 0 0  0.3828125 0 0  0.390625 0 0  0.3984375 0 0  0.40625 0 0  0.4140625 0 0  0.421875 0 0  0.4296875 0 0  0.4375 0 0  0.4453125 0 0  0.453125 0 0  0.4609375 0 0  0.46875 0 0  0.4765625 0 0  0.484375 0 0  0.4921875 0 0  0.5 0 0  0.5078125 0 0  0.515625 0 0  0.5234375 0 0  0.53125 0 0  0.5390625 0 0  0.546875 0 0  0.5546875 0 0  0.5625 0 0  0.5703125 0 0  0.578125 0 0  0.5859375 0 0  0.59375 0 0  0.6015625 0 0  0.609375 0 0  0.6171875 0 0  0.625 0 0  0.6328125 0 0  0.640625 0 0  0.6484375 0 0  0.65625 0 0  0.6640625 0 0  0.671875 0 0  0.6796875 0 0  0.6875 0 0  0.6953125 0 0  0.703125 0 0  0.7109375 0 0  0.71875 0 0  0.7265625 0 0  0.734375 0 0  0.7421875 0 0  0.75 0 0  0.7578125 0 0  0.765625 0 0  0.7734375 0 0  0.78125 0 0  0.7890625 0 0  0.796875 0 0  0.8046875 0 0  0.8125 0 0  0.8203125 0 0  0.828125 0 0  0.8359375 0 0  0.84375 0 0  0.8515625 0 0  0.859375 0 0  0.8671875 0 0  0.875 0 0  0.8828125 0 0  0.890625 0 0  0.8984375 0 0  0.90625 0 0  0.9140625 0 0  0.921875 0 0  0.9296875 0 0  0.9375 0 0  0.9453125 0 0  0.953125 0 0  0.9609375 0 0  0.96875 0 0  0.9765625 0 0  0.984375 0 0  0.9921875 0 0  1 0 0  0 0.0078125 0  0.0078125 0.0078125 0  0.015625 0.0078125 0  0.0234375 0.0078125 0  0.03125 0.0078125 0  0.0390625 0.0078125 0  0.046875 0.0078125 0  0.0546875 0.0078125 0  0.0625 0.0078125 0  0.0703125 0.0078125 0  0.078125 0.0078125 0  0.0859375 0.0078125 0  0.09375 0.0078125 0  0.1015625 0.0078125 0  0.109375 0.0078125 0  0.1171875 0.0078125 0  0.125 0.0078125 0  0.1328125 0.0078125 0  0.140625 0.0078125 0  0.1484375 0.0078125 0  0.15625 0.0078125 0  0.1640625 0.0078125 0  0.171875 0.0078125 0  0.1796875 0.0078125 0  0.1875 0.0078125 0  0.1953125 0.0078125 0  0.203125 0.0078125 0  0.2109375 0.0078125 0  0.21875 0.0078125 0  0.2265625 0.0078125 0  0.234375 0.0078125 0  0.2421875 0.0078125 0  0.25 0.0078125 0  0.2578125 0.0078125 0  0.265625 0.0078125 0  0.2734375 0.0078125 0  0.28125 0.0078125 0  0.2890625 0.0078125 0  0.296875 0.0078125 0  0.3046875 0.0078125 0  0.3125 0.0078125 0  0.3203125 0.0078125 0  0.328125 0.0078125 0  0.3359375 0.0078125 0  0.34375 0.0078125 0  0.3515625 0.0078125 0  0.359375 0.0078125 0  0.3671875 0.0078125 0  0.375 0.0078125 0  0.3828125 0.0078125 0  0.390625 0.0078125 0  0.3984375 0.0078125 0  0.40625 0.0078125 0  0.4140625 0.0078125 0  0.421875 0.0078125 0  0.4296875 0.0078125 0  0.4375 0.0078125 0  0.4453125 0.0078125 0  0.453125 0.0078125 0  0.4609375 0.0078125 0  0.46875 0.0078125 0  0.4765625 0.0078125 0  0.484375 0.0078125 0  0.4921875 0.0078125 0  0.5 0.0078125 0  0.5078125 0.0078125 0  0.515625 0.0078125 0  0.5234375 0.0078125 0  0.53125 0.0078125 0  0.5390625 0.0078125 0  0.546875 0.0078125 0  0.5546875 0.0078125 0  0.5625 0.0078125 0  0.5703125 0.0078125 0  0.578125 0.0078125 0  0.5859375 0.0078125 0  0.59375 0.0078125 0  0.6015625 0.0078125 0  0.609375 0.0078125 0  0.6171875 0.0078125 0  0.625 0.0078125 0  0.6328125 0.0078125 0  0.640625 0.0078125 0  0.6484375 0.0078125 0  0.65625 0.0078125 0  0.6640625 0.0078125 0  0.671875 0.0078125 0  0.6796875 0.0078125 0  0.6875 0.0078125 0  0.6953125 0.0078125 0  0.703125 0.0078125 0  0.7109375 0.0078125 0  0.71875 0.0078125 0  0.7265625 0.0078125 0  0.734375 0.0078125 0  0.7421875 0.0078125 0  0.75 0.0078125 0  0.7578125 0.0078125 0  0.765625 0.0078125 0  0.7734375 0.0078125 0  0.78125 0.0078125 0  0.7890625 0.0078125 0  0.796875 0.0078125 0  0.8046875 0.0078125 0  0.8125 0.0078125 0  0.8203125 0.0078125 0  0.828125 0.0078125 0  0.8359375 0.0078125 0  0.84375 0.0078125 0  0.8515625 0.0078125 0  0.859375 0.0078125 0  0.8671875 0.0078125 0  0.875 0.0078125 0  0.8828125 0.0078125 0  0.890625 0.0078125 0  0.8984375 0.0078125 0  0.90625 0.0078125 0  0.9140625 0.0078125 0  0.921875 0.0078125 0  0.9296875 0.0078125 0  0.9375 0.0078125 0  0.9453125 0.0078125 0  0.953125 0.0078125 0  0.9609375 0.0078125 0  0.96875 0.0078125 0  0.9765625 0.0078125 0  0.984375 0.0078125 0  0.9921875 0.0078125 0  1 0.0078125 0  0 0.015625 0  0.0078125 0.015625 0  0.015625 0.015625 0  0.0234375 0.015625 0  0.03125 0.015625 0  0.0390625 0.015625 0  0.046875 0.015625 0  0.0546875 0.015625 0  0.0625 0.015625 0  0.0703125 0.015625 0  0.078125 0.015625 0  0.0859375 0.015625 0  0.09375 0.015625 0  0.1015625 0.015625 0  0.109375 0.015625 0  0.1171875 0.015625 0  0.125 0.015625 0  0.1328125 0.015625 0  0.140625 0.015625 0  0.1484375 0.015625 0  0.15625 0.015625 0  0.1640625 0.015625 0  0.171875 0.015625 0  0.1796875 0.015625 0  0.1875 0.015625 0  0.1953125 0.015625 0  0.203125 0.015625 0  0.2109375 0.015625 0  0.21875 0.015625 0  0.2265625 0.015625 0  0.234375 0.015625 0  0.2421875 0.015625 0  0.25 0.015625 0  0.2578125 0.015625 0  0.265625 0.015625 0  0.2734375 0.015625 0  0.28125 0.015625 0  0.2890625 0.015625 0  0.296875 0.015625 0  0.3046875 0.015625 0  0.3125 0.015625 0  0.3203125 0.015625 0  0.328125 0.015625 0  0.3359375 0.015625 0  0.34375 0.015625 0  0.3515625 0.015625 0  0.359375 0.015625 0  0.3671875 0.015625 0  0.375 0.015625 0  0.3828125 0.015625 0  0.390625 0.015625 0  0.3984375 0.015625 0  0.40625 0.015625 0  0.4140625 0.015625 0  0.421875 0.015625 0  0.4296875 0.015625 0  0.4375 0.015625 0  0.4453125 0.015625 0  0.453125 0.015625 0  0.4609375 0.015625 0  0.46875 0.015625 0  0.4765625 0.015625 0  0.484375 0.015625 0  0.4921875 0.015625 0  0.5 0.015625 0  0.5078125 0.015625 0  0.515625 0.015625 0  0.5234375 0.015625 0  0.53125 0.015625 0  0.5390625 0.015625 0  0.546875 0.015625 0  0.5546875 0.015625 0  0.5625 0.015625 0  0.5703125 0.015625 0  0.578125 0.015625 0  0.5859375 0.015625 0  0.59375 0.015625 0  0.6015625 0.015625 0  0.609375 0.015625 0  0.6171875 0.015625 0  0.625 0.015625 0  0.6328125 0.015625 0  0.640625 0.015625 0  0.6484375 0.015625 0  0.65625 0.015625 0  0.6640625 0.015625 0  0.671875 0.015625 0  0.6796875 0.015625 0  0.6875 0.015625 0  0.6953125 0.015625 0  0.703125 0.015625 0  0.7109375 0.015625 0  0.71875 0.015625 0  0.7265625 0.015625 0  0.734375 0.015625 0  0.7421875 0.015625 0  0.75 0.015625 0  0.7578125 0.015625 0  0.765625 0.015625 0  0.7734375 0.015625 0  0.78125 0.015625 0  0.7890625 0.015625 0  0.796875 0.015625 0  0.8046875 0.015625 0  0.8125 0.015625 0  0.8203125 0.015625 0  0.828125 0.015625 0  0.8359375 0.015625 0  0.84375 0.015625 0  0.8515625 0.015625 0  0.859375 0.015625 0  0.8671875 0.015625 0  0.875 0.015625 0  0.8828125 0.015625 0  0.890625 0.015625 0  0.8984375 0.015625 0  0.90625 0.015625 0  0.9140625 0.015625 0  0.921875 0.015625 0  0.9296875 0.015625 0  0.9375 0.015625 0  0.9453125 0.015625 0  0.953125 0.015625 0  0.9609375 0.015625 0  0.96875 0.015625 0  0.9765625 0.015625 0  0.984375 0.015625 0  0.9921875 0.015625 0  1 0.015625 0  0 0.0234375 0  0.0078125 0.0234375 0  0.015625 0.0234375 0  0.0234375 0.0234375 0  0.03125 0.0234375 0  0.0390625 0.0234375 0  0.046875 0.0234375 0  0.0546875 0.0234375 0  0.0625 0.0234375 0  0.0703125 0.0234375 0  0.078125 0.0234375 0  0.0859375 0.0234375 0  0.09375 0.0234375 0  0.1015625 0.0234375 0  0.109375 0.0234375 0  0.1171875 0.0234375 0  0.125 0.0234375 0  0.1328125 0.0234375 0  0.140625 0.0234375 0  0.1484375 0.0234375 0  0.15625 0.0234375 0  0.1640625 0.0234375 0  0.171875 0.0234375 0  0.1796875 0.0234375 0  0.1875 0.0234375 0  0.1953125 0.0234375 0  0.203125 0.0234375 0  0.2109375 0.0234375 0  0.21875 0.0234375 0  0.2265625 0.0234375 0  0.234375 0.0234375 0  0.2421875 0.0234375 0  0.25 0.0234375 0  0.2578125 0.0234375 0  0.265625 0.0234375 0  0.2734375 0.0234375 0  0.28125 0.0234375 0  0.2890625 0.0234375 0  0.296875 0.0234375 0  0.3046875 0.0234375 0  0.3125 0.0234375 0  0.3203125 0.0234375 0  0.328125 0.0234375 0  0.3359375 0.0234375 0  0.34375 0.0234375 0  0.3515625 0.0234375 0  0.359375 0.0234375 0  0.3671875 0.0234375 0  0.375 0.0234375 0  0.3828125 0.0234375 0  0.390625 0.0234375 0  0.3984375 0.0234375 0  0.40625 0.0234375 0  0.4140625 0.0234375 0  0.421875 0.0234375 0  0.4296875 0.0234375 0  0.4375 0.0234375 0  0.4453125 0.0234375 0  0.453125 0.0234375 0  0.4609375 0.0234375 0  0.46875 0.0234375 0  0.4765625 0.0234375 0  0.484375 0.0234375 0  0.4921875 0.0234375 0  0.5 0.0234375 0  0.5078125 0.0234375 0  0.515625 0.0234375 0  0.5234375 0.0234375 0  0.53125 0.0234375 0  0.5390625 0.0234375 0  0.546875 0.0234375 0  0.5546875 0.0234375 0  0.5625 0.0234375 0  0.5703125 0.0234375 0  0.578125 0.0234375 0  0.5859375 0.0234375 0  0.59375 0.0234375 0  0.6015625 0.0234375 0  0.609375 0.0234375 0  0.6171875 0.0234375 0  0.625 0.0234375 0  0.6328125 0.0234375 0  0.640625 0.0234375 0  0.6484375 0.0234375 0  0.65625 0.0234375 0  0.6640625 0.0234375 0  0.671875 0.0234375 0  0.6796875 0.0234375 0  0.6875 0.0234375 0  0.6953125 0.0234375 0  0.703125 0.0234375 0  0.7109375 0.0234375 0  0.71875 0.0234375 0  0.7265625 0.0234375 0  0.734375 0.0234375 0  0.7421875 0.0234375 0  0.75 0.0234375 0  0.7578125 0.0234375 0  0.765625 0.0234375 0  0.7734375 0.0234375 0  0.78125 0.0234375 0  0.7890625 0.0234375 0  0.796875 0.0234375 0  0.8046875 0.0234375 0  0.8125 0.0234375 0  0.8203125 0.0234375 0  0.828125 0.0234375 0  0.8359375 0.0234375 0  0.84375 0.0234375 0  0.8515625 0.0234375 0  0.859375 0.0234375 0  0.8671
[...]
<CellData  Scalars="f_1244"> 
<DataArray  type="Float64"  Name="f_1244"  format="ascii">1.1593628324389576e-06   1.1584937458265683e-06   1.1579670364958396e-06   1.1570872216071208e-06   1.1551786537174542e-06   1.1542923831348615e-06   1.1510044083132740e-06   1.1501145371366924e-06   1.1454543616905032e-06   1.1445631093416812e-06   1.1385418887336026e-06   1.1376511318535106e-06   1.1302836458525250e-06   1.1293950538796968e-06   1.1206995310130494e-06   1.1198146356127219e-06   1.1098126359010920e-06   1.1089328690895032e-06   1.0976491903610796e-06   1.0967759065007124e-06   1.0842384992553077e-06   1.0833729881350758e-06   1.0696128719028839e-06   1.0687563665976344e-06   1.0538075442730798e-06   1.0529612258005357e-06   1.0368605941220064e-06   1.0360255940648355e-06   1.0188128492799389e-06   1.0179902510785701e-06   9.9970778931004934e-07   9.9889862867538297e-07   9.7959144077715292e-07   9.7879670551374715e-07   9.5851226637872414e-07   9.5773289581733783e-07   9.3652104820603490e-07   9.3575793238157826e-07   9.1367076541644213e-07   9.1292474408943837e-07   8.9001646661195628e-07   8.8928832820337538e-07   8.6561513723200103e-07   8.6490561772361380e-07   8.4052556227922464e-07   8.3983534411868602e-07   8.1480818470948989e-07   8.1413789575067098e-07   7.8852495982765936e-07   7.8787517232727261e-07   7.6173920603930272e-07   7.6111043572975399e-07   7.3451545231796839e-07   7.3390815756972592e-07   7.0691928275638266e-07   7.0633386383992108e-07   6.7901717857477965e-07   6.7845397703310826e-07   6.5087635796813027e-07   6.5033565610404858e-07   6.2256461417743058e-07   6.2204663466355821e-07   5.9415015217511261e-07   5.9365505778998586e-07   5.6570142435906110e-07   5.6522931785100219e-07   5.3728696564922912e-07   5.3683788973214330e-07   5.0897522838608413e-07   5.0854916587081967e-07   4.8083441742727627e-07   4.8043129148274260e-07   4.5293232584035926e-07   4.5255200039204588e-07   4.2533617158739739e-07   4.2497845184908301e-07   3.9811243559475260e-07   3.9777706873416243e-07   3.7132670159820334e-07   3.7101337753494525e-07   3.4504349814925039e-07   3.4475185048436139e-07   3.1932614316349401e-07   3.1905575023759088e-07   2.9423659138493194e-07   2.9398697746321542e-07   2.6983528513447970e-07   2.6960592171723734e-07   2.4618100870151470e-07   2.4597131595496906e-07   2.2333074672988576e-07   2.2314009503626291e-07   2.0133954693900645e-07   2.0116725856085249e-07   1.8026038751129431e-07   1.8010573836727443e-07   1.6014404946474983e-07   1.6000627101233750e-07   1.4103899431913089e-07   1.4091727553913058e-07   1.2299124734916081e-07   1.2288473683082090e-07   1.0604428670738907e-07   1.0595209482356629e-07   9.0238938682664250e-08   9.0160139855893477e-08   7.5613279347466120e-08   7.5546914397866225e-08   6.2202542830272413e-08   6.2147621401178928e-08   5.0039036434470675e-08   4.9994539491025807e-08   3.9152062808307400e-08   3.9116945201230714e-08   2.9567849352834478e-08   2.9541042443196811e-08   2.1309485038596031e-08   2.1289899376919409e-08   1.4396864782900575e-08   1.4383392835941894e-08   8.8466415217216103e-09   8.8381604413998050e-09   4.6721860916446463e-09   4.6675605193609023e-09   1.8835550188352476e-09   1.8816399184033526e-09   4.8746629209920313e-10   4.8710980537319416e-10   4.8728317888445792e-10   4.8732949689024660e-10   1.8830061229365799e-09   1.8822983662246790e-09   4.6712727431962114e-09   4.6686558446048582e-09   8.8453659340038928e-09   8.8396895171981672e-09   1.4395230046993149e-08   1.4385351294214180e-08   2.1307495115825319e-08   2.1292281618225635e-08   2.9565509065182670e-08   2.9543841648801683e-08   3.9149377826706479e-08   3.9120153348528125e-08   5.0036013265018080e-08   4.9998147371296587e-08   6.2199188798469670e-08   6.2151618640294959e-08   7.5609602580484820e-08   7.5551289479906860e-08   9.0234948089646404e-08   9.0164880149679882e-08   1.0603999195794487e-07   1.0595718661125589e-07   1.2298665885000777e-07   1.2289016534020401e-07   1.4103412318896078e-07   1.4092302497907464e-07   1.6013890750746245e-07   1.6001232460956880e-07   1.8025498718758961e-07   1.8011207840888198e-07   2.0133390133647397e-07   2.0117386643647964e-07   2.2332486953164144e-07   2.2314695128645155e-07   2.4617491415338218e-07   2.4597840032056756e-07   2.6982898801098063e-07   2.6961321319298857e-07   2.9423010695404012e-07   2.9399445435496627e-07   3.1931948715020792e-07   3.1906339022176108e-07   3.4503668669835089e-07   3.4475963067227169e-07   3.7131975123581208e-07   3.7102127453976932e-07   3.9810536318911834e-07   3.9778505874252579e-07   4.2532899430921516e-07   4.2498651069558562e-07   4.5292506112197798e-07   4.5256010363862655e-07   4.8082708292171351e-07   4.8043941450228072e-07   5.0896784192534235e-07   5.0855728393375730e-07   5.3727954520229131e-07   5.3684597810010374e-07   5.6569398798943606e-07   5.6523735187119877e-07   5.9414271799837995e-07   5.9366301299977353e-07   6.2255720031820311e-07   6.2205448689483187e-07   6.5086898251739569e-07   6.5034338159407161e-07   6.7900985954656374e-07   6.7846155254272833e-07   7.0691203804481948e-07   7.0634126677491444e-07   7.3450829965418118e-07   7.3391536610642749e-07   7.6173216294818037e-07   7.6111742894886443e-07   7.8851804358474492e-07   7.8788193034994891e-07   8.1480141229768280e-07   8.1414439988057734e-07   8.4051895034564806e-07   8.3984157698911810e-07   8.6560870204454582e-07   8.6491156344794605e-07   8.9001022401554261e-07   8.8929397253009244e-07   9.1366473078917551e-07   9.1293007455983268e-07   9.3651523641490580e-07   9.3576293848943282e-07   9.5850669173419888e-07   9.5773756917039780e-07   9.7958611698779663e-07   9.7880103999556982e-07   9.9970272943528175e-07   9.9890262060393540e-07   1.0188080656817055e-06   1.0179938993635201e-06   1.0368560984145885e-06   1.0360289003580577e-06   1.0538033472706232e-06   1.0529641946394148e-06   1.0696089835640773e-06   1.0687590055373099e-06   1.0842349286238946e-06   1.0833753078668133e-06   1.0976459455017690e-06   1.0967779209520307e-06   1.1098097238284276e-06   1.1089345955011952e-06   1.1206969576113450e-06   1.1198160945866313e-06   1.1302814157820717e-06   1.1293962693903675e-06   1.1385400053173533e-06   1.1376521312301482e-06   1.1454528267680696e-06   1.1445639233259443e-06   1.1510032220389560e-06   1.1501152007061056e-06   1.1551778142490999e-06   1.1542929409340795e-06   1.1579665394361301e-06   1.1570877574818998e-06   1.1593626695668034e-06   1.1584945093510463e-06   1.1584948378277837e-06   1.1562453253642901e-06   1.1570914378986398e-06   1.1548353623924250e-06   1.1543015951011371e-06   1.1520425603912728e-06   1.1501306095628307e-06   1.1478721816288401e-06   1.1445878959963702e-06   1.1423334854978354e-06   1.1376864705352566e-06   1.1354393457503785e-06   1.1294427614178839e-06   1.1272060687016423e-06   1.1198765029532328e-06   1.1176532833537065e-06   1.1090106564985666e-06   1.1068038570044686e-06   1.0968713388959133e-06   1.0946838190052759e-06   1.0834877505474299e-06   1.0813222853311568e-06   1.0688920997683583e-06   1.0667513804702356e-06   1.0531195219173512e-06   1.0510061548626449e-06   1.0362079926433286e-06   1.0341244970092826e-06   1.0181982349949850e-06   1.0161470398273224e-06   9.9913362035756382e-07   9.9711706110523210e-07   9.7906006329705228e-07   9.7708037805940783e-07   9.5802591047267503e-07   9.5608523610011512e-07   9.3608182382244342e-07   9.3418219197430978e-07   9.1328065826457046e-07   9.1142399150323335e-07   8.8967733418149457e-07   8.8786544216364010e-07   8.6532870497653427e-07   8.6356328078696018e-07   8.4029342000839132e-07   8.3857603667602579e-07   8.1463178322571119e-07   8.1296389044924571e-07   7.8840560783350525e-07   7.8678852894369690e-07   7.6167806733981141e-07   7.6011299651559283e-07   7.3451354333515846e-07   7.3300154309155526e-07   7.0697747036935727e-07   7.0551946933123516e-07   6.7913617829961243e-07   6.7773296927109347e-07   6.5105673248393180e-07   6.4970897082290715e-07   6.2280677220846433e-07   6.2151497451542590e-07   5.9445434773369324e-07   5.9321889085785952e-07   5.6606775635162963e-07   5.6488887672183541e-07   5.3771537785001888e-07   5.3659317113167432e-07   5.0946550978172574e-07   5.0839993086227015e-07   4.8138620292566194e-07   4.8037706623143832e-07   4.5354509734986123e-07   4.5259207749245656e-07   4.2600925946042922e-07   4.2511189221089448e-07   3.9884502043371188e-07   3.9800270402744768e-07   3.7211781641935536e-07   3.7132981318214230e-07   3.4589203089998462e-07   3.4515746919794089e-07   3.2023083958602343e-07   3.1954871609063515e-07   2.9519605822007456e-07   2.9456524048643362e-07   2.7084799365900084e-07   2.7026722300788671e-07   2.4724529858821307e-07   2.4671319328953291e-07   2.2444483022334571e-07   2.2395988896850776e-07   2.0250151333536851e-07   2.0206211899522536e-07   1.8146820793239291e-07   1.8107263158793272e-07   1.6139558191455507e-07   1.6104198715353497e-07   1.4233198900946916e-07   1.4201843647914199e-07   1.2432335228556416e-07   1.2404780448572340e-07   1.0741305351557596e-07   1.0717337982881541e-07   9.1641828667780638e-08   9.1435810607233246e-08   7.7047669767624594e-08   7.6873006434923809e-08   6.3665733370665701e-08   6.3520047109034224e-08   5.1528255867457276e-08   5.1409098096063971e-08   4.0664475821417925e-08   4.0569333039338110e-08   3.1100563530298587e-08   3.1026863473124424e-08   2.2859557978857289e-08   2.2804675916119440e-08   1.5961311334892299e-08   1.5922576490851120e-08   1.0422441123163400e-08   1.0397143207755581e-08   6.2562901916949203e-09   6.2416860245947942e-09   3.4728945669167085e-09   3.4662147803299619e-09   2.0789592757446547e-09   2.0774150790707880e-09   2.0778421919980601e-09   2.0786321829141458e-09   3.4695459466477544e-09   3.4698629522095177e-09   6.2507179214079085e-09   6.2477558529109394e-09   1.0414658325181842e-08   1.0405619030887270e-08   1.5951336334476085e-08   1.5933436433584801e-08   2.2847414258707260e-08   2.2817891940610760e-08   3.1086279671667062e-08   3.1042401444511164e-08   4.0648085433230292e-08   4.0587152805377786e-08   5.1509797502452990e-08   5.1429153581637080e-08   6.3645250429690145e-08   6.3542286423923029e-08   7.7025210391962866e-08   7.6897371996663051e-08   9.1617445620221299e-08   9.1462239277132407e-08   1.0738680404945903e-07   1.0720180306196166e-07   1.2429529800392119e-07   1.2407814849464751e-07   1.4230219571410216e-07   1.4205062241073590e-07   1.6136411944372162e-07   1.6107593127992096e-07   1.8143514999197513e-07   1.8110824550871115e-07   2.0246693731793278e-07   2.0209930985571914e-07   2.2440881702213552e-07   2.2399855968669462e-07   2.4720793240161238e-07   2.4675324279886877e-07   2.7080936178899704e-07   2.7030854651067289e-07   2.9515625086502134e-07   2.9460772972066917e-07   3.2018994962668589e-07   3.1959225960764572e-07   3.4585015368241301e-07   3.4520195265266115e-07   3.7207504953279481e-07   3.7137511963520855e-07   3.9880146348620497e-07   3.9804871425742691e-07   4.2596501385145299e-07   4.2515848504141243e-07   4.5350026604230367e-07   4.5263913012597029e-07   4.8134089021707267e-07   4.8042445459900727e-07   5.0941982107484643e-07   5.0844752997941786e-07   5.3766941942686859e-07   5.3664085547038360e-07   5.6602163514590003e-07   5.6493652058883952e-07   5.9440817111128093e-07   5.9326636878717977e-07   6.2276064774672642e-07   6.2156216166829996e-07   6.5101076775698973e-07   6.4975574340010679e-07   6.7909048067120645e-07   6.7777920493450492e-07   7.0693214678960326e-07   7.0556504763514450e-07   7.3446870014323039e-07   7.3304634592263741e-07   7.6163381007677176e-07   7.6015690854267655e-07   7.8836204106006458e-07   7.8683143807466610e-07   8.1458901034948045e-07   8.1300568829599934e-07   8.4025154311968661e-07   8.3861661902453181e-07   8.6528782469168338e-07   8.6360254807425049e-07   8.8963754949530227e-07   8.8790329995649227e-07   9.1324206641043365e-07   9.1146035098025221e-07   9.3604452013947937e-07   9.3421697040639903e-07   9.5798998827973695e-07   9.5611835732988782e-07   9.7902561377257570e-07   9.7711177297373792e-07   9.9910073242113271e-07   9.9714666809931635e-07   1.0181669951922166e-06   1.0161748052565164e-06   1.0361784850281098e-06   1.0341503756225949e-06   1.0530918279301409e-06   1.0510301102161344e-06   1.0688662981048288e-06   1.0667733853124141e-06   1.0834639170127031e-06   1.0813423219583490e-06   1.0968495462367711e-06   1.0947018795816635e-06   1.1089909742037057e-06   1.1068199438516092e-06   1.1198589970081786e-06   1.1176674092220352e-06   1.1294274939956386e-06   1.1272182570851095e-06   1.1376734996102748e-06   1.1354496314184867e-06   1.1445772749549521e-06   1.1423419157816055e-06   1.1501223874419104e-06   1.1478788199235850e-06   1.1542958211887576e-06   1.1520474950212035e-06   1.1570881899825118e-06   1.1548387246494831e-06   1.1584943467041207e-06   1.1562473026040509e-06   1.1562481643208530e-06   1.1526246134342433e-06   1.1548456349807279e-06   1.1512158194842934e-06   1.1520637603271159e-06   1.1484321800528878e-06   1.1479077784572806e-06   1.1442791926703168e-06   1.1423869168630057e-06   1.1387660996362267e-06   1.1355140093386898e-06   1.1319056845955069e-06   1.1273053140210333e-06   1.1237141341469343e-06   1.1177804034895817e-06   1.1142109393758476e-06   1.1069620804478986e-06   1.1034188147735168e-06   1.0948763016147503e-06   1.0913636228714696e-06   1.0815521024680052e-06   1.0780742988376847e-06   1.0670215193362951e-06   1.0635827721589877e-06   1.0513195070630850e-06   1.0479238838982247e-06   1.0344838513601012e-06   1.0311352987340725e-06   1.0165550754253409e-06   1.0132574113874467e-06   9.9757634067710557e-07   9.9433324727396578e-07   9.7759334160507105e-07   9.7440835737555924e-07   9.5665419484563211e-07   9.5353070741696072e-07   9.3480932264796905e-07   9.3175056150749750e-07   9.1211133094804971e-07   9.0912036044291635e-07   8.8861488229866852e-07   8.8569459491652599e-07   8.6437656392902610e-07   8.6152967390007382e-07   8.3945475123251948e-07   8.3668378848539522e-07   8.1390946699183978e-07   8.1121677149570392e-07   7.8780223667201006e-07   7.8518995318761864e-07   7.6119594011879076e-07   7.5866601338289817e-07   7.3415466001496788e-07   7.3170883037473317e-07   7.0674352745397533e-07   7.0438332696954700e-07   6.7902856500020598e-07   6.7675531402616075e-07   6.5107652760787815e-07   6.4889133187002740e-07   6.2295474178633874e-07   6.2085848995857632e-07   5.9473094338944003e-07   5.9272430518151390e-07   5.6647311442436635e-07   5.6455653918737879e-07   5.3824931926904409e-07   5.3642303512128790e-07   5.1012754069633938e-07   5.0839155417266305e-07   4.8217551609066951e-07   4.8052961232032409e-07   4.5446057426207138e-07   4.5290431767024921e-07   4.2704947324052983e-07   4.2558220877749302e-07   4.0000823945145687e-07   3.9862909434224833e-07   3.7340200864678041e-07   3.7210989466151002e-07   3.4729486898851001e-07   3.4608848522376425e-07   3.2174970665068502e-07   3.2062754282039869e-07   2.9682805432043460e-07   2.9578839454566426e-07   2.7258994295782023e-07   2.7163087004578778e-07   2.4909375717469503e-07   2.4821315737871800e-07   2.2639609457727009e-07   2.2559166282635581e-07   2.0455162941640060e-07   2.0382087500084728e-07   1.8361298086887840e-07   1.8295323356888332e-07   1.6363058627096894e-07   1.6303900291437592e-07   1.4465257960840526e-07   1.4412615103964291e-07   1.2672467555302620e-07   1.2626023400074366e-07   1.0989005933042574e-07   1.0948428615178430e-07   9.4189282679368719e-08   9.3838716465486400e-08   7.9660166156846341e-08   7.9361211178969899e-08   6.6337708021848733e-08   6.6086642998153141e-08   5.4253999918879857e-08   5.4046987081288508e-08   4.3438149564068468e-08   4.3271244002926091e-08   3.3916210618779721e-08   3.3785369884411773e-08   2.5711119923213111e-08   2.5612213858989846e-08   1.8842642235891645e-08   1.8771463022432412e-08   1.3327322617860869e-08   1.3279595001582289e-08   9.1784465717105865e-09   9.1498382555824283e-09   6.4060080344975233e-09   6.3921402046623261e-09   5.0166853001855483e-09   5.0131432640465229e-09   5.0138249299846635e-09   5.0161688403562074e-09   6.3974336895836424e-09   6.4012093290442728e-09   9.1641785321901331e-09   9.1649281324966588e-09   1.3307394628040607e-08   1.3300667697987075e-08   1.8817101420752928e-08   1.8798465557432396e-08   2.5680026671726063e-08   2.5645078328967580e-08   3.3879638434710735e-08   3.3824013623285078e-08   4.3396184883931733e-08   4.3315569777805534e-08   5.4206741898971708e-08   5.4096883322798820e-08   6.6285268292968931e-08   6.6141984065135198e-08   7.9602668549770799e-08   7.9421857657217766e-08   9.4126862919880860e-08   9.3904515499587530e-08   1.0982286470591091e-07   1.0955507181060478e-07   1.2665286455127305e-07   1.2633582767462115e-07   1.4457632152975173e-07   1.4420636186975050e-07   1.6355006081548977e-07   1.6312362825309479e-07   1.8352837769791411e-07   1.8304205947072425e-07   2.0446314769407214e-07   2.0391367674250365e-07   2.2630394248665221e-07   2.2568820545689649e-07   2.4899815141752883e-07   2.4831319629653335e-07   2.7249110823394158e-07   2.7173415160451432e-07   2.9672622279191312e-07   2.9589465668569624e-07   3.2164511738978137e-07   3.2073651572665089e-07   3.4718776741337333e-07   3.4619989200818816e-07   3.7329264594585521e-07   3.7222345207117343e-07   3.9989687199731190e-07   3.9874451348865124e-07   4.2693636199994174e-07   4.2569919589051596e-07   4.5434598419587370e-07   4.5302257487235519e-07   4.8205971555525899e-07   4.8064883842376892e-07   5.1001080083921609e-07   5.0851144549391369e-07   5.3813191343040774e-07   5.3654328631689913e-07   5.6635531753734638e-07   5.6467684410796021e-07   5.9461303138909754e-07   5.9284435774280071e-07   6.2283699102280851e-07   6.2097798502844140e-07   6.5095921427104171e-07   6.4900996617250080e-07   6.7891196455490533e-07   6.7687278705861605e-07   7.0662791408830009e-07   7.0449934193340885e-07   7.3404030610303624e-07   7.3182309511931110e-07   7.6108311570095455e-07   7.5877824135697409e-07   7.8769120895201090e-07   7.8529986440368876e-07   8.1380049985417063e-07   8.1132409349789064e-07   8.3934810477846707e-07   8.3678825732399640e-07   8.6427249403531555e-07   8.6163103510856926e-07   8.8851364019519618e-07   8.8579260448748558e-07   9.1201316281808507e-07   9.0921478580050190e-07   9.3471446924721143e-07   9.3184118247268654e-07   9.5656289114184164e-07   9.5361731716137163e-07   9.7750581643374131e-07   9.7449076335788730e-07   9.9749281641219246e-07   9.9441127215658948e-07   1.0164757676616651e-06   1.0133308939218520e-06   1.0344089686013721e-06   1.0312040946133406e-06   1.0512492504133469e-06   1.0479878665683445e-06   1.0669560821850073e-06   1.0636418335813394e-06   1.0814916701644625e-06   1.0781283501993376e-06   1.0948210511224252e-06   1.0914125952429838e-06   1.1069121799769413e-06   1.1034626597271332e-06   1.1177360121104343e-06   1.1142496296004741e-06   1.1272665813053693e-06   1.1237476641614598e-06   1.1354810751801296e-06   1.1319340717776094e-06   1.1423599119818395e-06   1.1387893859990442e-06   1.1478868270087732e-06   1.1442974480045378e-06   1.1520489877210185e-06   1.1484455066927738e-06   1.1548371847932308e-06   1.1512243550702322e-06   1.1562462108799969e-06   1.1526285113222215e-06   1.1526300124975148e-06   1.1476407868186925e-06   1.1512345801031459e-06   1.1462368437213306e-06   1.1484694032027348e-06   1.1434690469599061e-06   1.1443399359804018e-06   1.1393431291794900e-06   1.1388553653848340e-06   1.1338683569887598e-06   1.1320284079645752e-06   1.1270574421280665e-06   1.1238751714899052e-06   1.1189264475222035e-06   1.1144150565445717e-06   1.1094947051309342e-06   1.1036706755728790e-06   1.0987847413166999e-06   1.0916677777033465e-06   1.0868222043931603e-06   1.0784351735863928e-06   1.0736357907590936e-06   1.0640046573614617e-06   1.0592571675274145e-06   1.0484109242355904e-06   1.0437208904818830e-06   1.0316914828761806e-06   1.0270643167371461e-06   1.0138865622