<?xml version="1.0"?>
<VTKFile type="UnstructuredGrid"  version="0.1"  >
<UnstructuredGrid>
<Piece  NumberOfPoints="16641" NumberOfCells="32768">
<Points>
<DataArray  type="Float64"  NumberOfComponents="3"  format="ascii">0 0 0  0.0078125 0 0  0.015625 0 0  0.0234375 0 0  0.03125 0 0  0.0390625 0 0  0.046875 0 0  0.0546875 0 0  0.0625 0 0  0.0703125 0 0  0.078125 0 0  0.0859375 0 0  0.09375 0 0  0.1015625 0 0  0.109375 0 0  0.1171875 0 0  0.125 0 0  0.1328125 0 0  0.140625 0 0  0.1484375 0 0  0.15625 0 0  0.1640625 0 0  0.171875 0 0  0.1796875 0 0  0.1875 0 0  0.1953125 0 0  0.203125 0 0  0.2109375 0 0  0.21875 0 0  0.2265625 0 0  0.234375 0 0  0.2421875 0 0  0.25 0 0  0.2578125 0 0  0.265625 0 0  0.2734375 0 0  0.28125 0 0  0.2890625 0 0  0.296875 0 0  0.3046875 0 0  0.3125 0 0  0.3203125 0 0  0.328125 0 0  0.3359375 0 0  0.34375 0 0  0.3515625 0 0  0.359375 0 0  0.3671875 0 0  0.375 0 0  0.3828125 0 0  0.390625 0 0  0.3984375 0 0  0.40625 0 0  0.4140625 0 0  0.421875 0 0  0.4296875 0 0  0.4375 0 0  0.4453125 0 0  0.453125 0 0  0.4609375 0 0  0.46875 0 0  0.4765625 0 0  0.484375 0 0  0.4921875 0 0  0.5 0 0  0.5078125 0 0  0.515625 0 0  0.5234375 0 0  0.53125 0 0  0.5390625 0 0  0.546875 0 0  0.5546875 0 0  0.5625 0 0  0.5703125 0 0  0.578125 0 0  0.5859375 0 0  0.59375 0 0  0.6015625 0 0  0.609375 0 0  0.6171875 0 0  0.625 0 0  0.6328125 0 0  0.640625 0 0  0.6484375 0 0  0.65625 0 0  0.6640625 0 0  0.671875 0 0  0.6796875 0 0  0.6875 0 0  0.6953125 0 0  0.703125 0 0  0.7109375 0 0  0.71875 0 0  0.7265625 0 0  0.734375 0 0  0.7421875 0 0  0.75 0 0  0.7578125 0 0  0.765625 0 0  0.7734375 0 0  0.78125 0 0  0.7890625 0 0  0.796875 0 0  0.8046875 0 0  0.8125 0 0  0.8203125 0 0  0.828125 0 0  0.8359375 0 0  0.84375 0 0  0.8515625 0 0  0.859375 0 0  0.8671875 0 0  0.875 0 0  0.8828125 0 0  0.890625 0 0  0.8984375 0 0  0.90625 0 0  0.9140625 0 0  0.921875 0 0  0.9296875 0 0  0.9375 0 0  0.9453125 0 0  0.953125 0 0  0.9609375 0 0  0.96875 0 0  0.9765625 0 0  0.984375 0 0  0.9921875 0 0  1 0 0  0 0.0078125 0  0.0078125 0.0078125 0  0.015625 0.0078125 0  0.0234375 0.0078125 0  0.03125 0.0078125 0  0.0390625 0.0078125 0  0.046875 0.0078125 0  0.0546875 0.0078125 0  0.0625 0.0078125 0  0.0703125 0.0078125 0  0.078125 0.0078125 0  0.0859375 0.0078125 0  0.09375 0.0078125 0  0.1015625 0.0078125 0  0.109375 0.0078125 0  0.1171875 0.0078125 0  0.125 0.0078125 0  0.1328125 0.0078125 0  0.140625 0.0078125 0  0.1484375 0.0078125 0  0.15625 0.0078125 0  0.1640625 0.0078125 0  0.171875 0.0078125 0  0.1796875 0.0078125 0  0.1875 0.0078125 0  0.1953125 0.0078125 0  0.203125 0.0078125 0  0.2109375 0.0078125 0  0.21875 0.0078125 0  0.2265625 0.0078125 0  0.234375 0.0078125 0  0.2421875 0.0078125 0  0.25 0.0078125 0  0.2578125 0.0078125 0  0.265625 0.0078125 0  0.2734375 0.0078125 0  0.28125 0.0078125 0  0.2890625 0.0078125 0  0.296875 0.0078125 0  0.3046875 0.0078125 0  0.3125 0.0078125 0  0.3203125 0.0078125 0  0.328125 0.0078125 0  0.3359375 0.0078125 0  0.34375 0.0078125 0  0.3515625 0.0078125 0  0.359375 0.0078125 0  0.3671875 0.0078125 0  0.375 0.0078125 0  0.3828125 0.0078125 0  0.390625 0.0078125 0  0.3984375 0.0078125 0  0.40625 0.0078125 0  0.4140625 0.0078125 0  0.421875 0.0078125 0  0.4296875 0.0078125 0  0.4375 0.0078125 0  0.4453125 0.0078125 0  0.453125 0.0078125 0  0.4609375 0.0078125 0  0.46875 0.0078125 0  0.4765625 0.0078125 0  0.484375 0.0078125 0  0.4921875 0.0078125 0  0.5 0.0078125 0  0.5078125 0.0078125 0  0.515625 0.0078125 0  0.5234375 0.0078125 0  0.53125 0.0078125 0  0.5390625 0.0078125 0  0.546875 0.0078125 0  0.5546875 0.0078125 0  0.5625 0.0078125 0  0.5703125 0.0078125 0  0.578125 0.0078125 0  0.5859375 0.0078125 0  0.59375 0.0078125 0  0.6015625 0.0078125 0  0.609375 0.0078125 0  0.6171875 0.0078125 0  0.625 0.0078125 0  0.6328125 0.0078125 0  0.640625 0.0078125 0  0.6484375 0.0078125 0  0.65625 0.0078125 0  0.6640625 0.0078125 0  0.671875 0.0078125 0  0.6796875 0.0078125 0  0.6875 0.0078125 0  0.6953125 0.0078125 0  0.703125 0.0078125 0  0.7109375 0.0078125 0  0.71875 0.0078125 0  0.7265625 0.0078125 0  0.734375 0.0078125 0  0.7421875 0.0078125 0  0.75 0.0078125 0  0.7578125 0.0078125 0  0.765625 0.0078125 0  0.7734375 0.0078125 0  0.78125 0.0078125 0  0.7890625 0.0078125 0  0.796875 0.0078125 0  0.8046875 0.0078125 0  0.8125 0.0078125 0  0.8203125 0.0078125 0  0.828125 0.0078125 0  0.8359375 0.0078125 0  0.84375 0.0078125 0  0.8515625 0.0078125 0  0.859375 0.0078125 0  0.8671875 0.0078125 0  0.875 0.0078125 0  0.8828125 0.0078125 0  0.890625 0.0078125 0  0.8984375 0.0078125 0  0.90625 0.0078125 0  0.9140625 0.0078125 0  0.921875 0.0078125 0  0.9296875 0.0078125 0  0.9375 0.0078125 0  0.9453125 0.0078125 0  0.953125 0.0078125 0  0.9609375 0.0078125 0  0.96875 0.0078125 0  0.9765625 0.0078125 0  0.984375 0.0078125 0  0.9921875 0.0078125 0  1 0.0078125 0  0 0.015625 0  0.0078125 0.015625 0  0.015625 0.015625 0  0.0234375 0.015625 0  0.03125 0.015625 0  0.0390625 0.015625 0  0.046875 0.015625 0  0.0546875 0.015625 0  0.0625 0.015625 0  0.0703125 0.015625 0  0.078125 0.015625 0  0.0859375 0.015625 0  0.09375 0.015625 0  0.1015625 0.015625 0  0.109375 0.015625 0  0.1171875 0.015625 0  0.125 0.015625 0  0.1328125 0.015625 0  0.140625 0.015625 0  0.1484375 0.015625 0  0.15625 0.015625 0  0.1640625 0.015625 0  0.171875 0.015625 0  0.1796875 0.015625 0  0.1875 0.015625 0  0.1953125 0.015625 0  0.203125 0.015625 0  0.2109375 0.015625 0  0.21875 0.015625 0  0.2265625 0.015625 0  0.234375 0.015625 0  0.2421875 0.015625 0  0.25 0.015625 0  0.2578125 0.015625 0  0.265625 0.015625 0  0.2734375 0.015625 0  0.28125 0.015625 0  0.2890625 0.015625 0  0.296875 0.015625 0  0.3046875 0.015625 0  0.3125 0.015625 0  0.3203125 0.015625 0  0.328125 0.015625 0  0.3359375 0.015625 0  0.34375 0.015625 0  0.3515625 0.015625 0  0.359375 0.015625 0  0.3671875 0.015625 0  0.375 0.015625 0  0.3828125 0.015625 0  0.390625 0.015625 0  0.3984375 0.015625 0  0.40625 0.015625 0  0.4140625 0.015625 0  0.421875 0.015625 0  0.4296875 0.015625 0  0.4375 0.015625 0  0.4453125 0.015625 0  0.453125 0.015625 0  0.4609375 0.015625 0  0.46875 0.015625 0  0.4765625 0.015625 0  0.484375 0.015625 0  0.4921875 0.015625 0  0.5 0.015625 0  0.5078125 0.015625 0  0.515625 0.015625 0  0.5234375 0.015625 0  0.53125 0.015625 0  0.5390625 0.015625 0  0.546875 0.015625 0  0.5546875 0.015625 0  0.5625 0.015625 0  0.5703125 0.015625 0  0.578125 0.015625 0  0.5859375 0.015625 0  0.59375 0.015625 0  0.6015625 0.015625 0  0.609375 0.015625 0  0.6171875 0.015625 0  0.625 0.015625 0  0.6328125 0.015625 0  0.640625 0.015625 0  0.6484375 0.015625 0  0.65625 0.015625 0  0.6640625 0.015625 0  0.671875 0.015625 0  0.6796875 0.015625 0  0.6875 0.015625 0  0.6953125 0.015625 0  0.703125 0.015625 0  0.7109375 0.015625 0  0.71875 0.015625 0  0.7265625 0.015625 0  0.734375 0.015625 0  0.7421875 0.015625 0  0.75 0.015625 0  0.7578125 0.015625 0  0.765625 0.015625 0  0.7734375 0.015625 0  0.78125 0.015625 0  0.7890625 0.015625 0  0.796875 0.015625 0  0.8046875 0.015625 0  0.8125 0.015625 0  0.8203125 0.015625 0  0.828125 0.015625 0  0.8359375 0.015625 0  0.84375 0.015625 0  0.8515625 0.015625 0  0.859375 0.015625 0  0.8671875 0.015625 0  0.875 0.015625 0  0.8828125 0.015625 0  0.890625 0.015625 0  0.8984375 0.015625 0  0.90625 0.015625 0  0.9140625 0.015625 0  0.921875 0.015625 0  0.9296875 0.015625 0  0.9375 0.015625 0  0.9453125 0.015625 0  0.953125 0.015625 0  0.9609375 0.015625 0  0.96875 0.015625 0  0.9765625 0.015625 0  0.984375 0.015625 0  0.9921875 0.015625 0  1 0.015625 0  0 0.0234375 0  0.0078125 0.0234375 0  0.015625 0.0234375 0  0.0234375 0.0234375 0  0.03125 0.0234375 0  0.0390625 0.0234375 0  0.046875 0.0234375 0  0.0546875 0.0234375 0  0.0625 0.0234375 0  0.0703125 0.0234375 0  0.078125 0.0234375 0  0.0859375 0.0234375 0  0.09375 0.0234375 0  0.1015625 0.0234375 0  0.109375 0.0234375 0  0.1171875 0.0234375 0  0.125 0.0234375 0  0.1328125 0.0234375 0  0.140625 0.0234375 0  0.1484375 0.0234375 0  0.15625 0.0234375 0  0.1640625 0.0234375 0  0.171875 0.0234375 0  0.1796875 0.0234375 0  0.1875 0.0234375 0  0.1953125 0.0234375 0  0.203125 0.0234375 0  0.2109375 0.0234375 0  0.21875 0.0234375 0  0.2265625 0.0234375 0  0.234375 0.0234375 0  0.2421875 0.0234375 0  0.25 0.0234375 0  0.2578125 0.0234375 0  0.265625 0.0234375 0  0.2734375 0.0234375 0  0.28125 0.0234375 0  0.2890625 0.0234375 0  0.296875 0.0234375 0  0.3046875 0.0234375 0  0.3125 0.0234375 0  0.3203125 0.0234375 0  0.328125 0.0234375 0  0.3359375 0.0234375 0  0.34375 0.0234375 0  0.3515625 0.0234375 0  0.359375 0.0234375 0  0.3671875 0.0234375 0  0.375 0.0234375 0  0.3828125 0.0234375 0  0.390625 0.0234375 0  0.3984375 0.0234375 0  0.40625 0.0234375 0  0.4140625 0.0234375 0  0.421875 0.0234375 0  0.4296875 0.0234375 0  0.4375 0.0234375 0  0.4453125 0.0234375 0  0.453125 0.0234375 0  0.4609375 0.0234375 0  0.46875 0.0234375 0  0.4765625 0.0234375 0  0.484375 0.0234375 0  0.4921875 0.0234375 0  0.5 0.0234375 0  0.5078125 0.0234375 0  0.515625 0.0234375 0  0.5234375 0.0234375 0  0.53125 0.0234375 0  0.5390625 0.0234375 0  0.546875 0.0234375 0  0.5546875 0.0234375 0  0.5625 0.0234375 0  0.5703125 0.0234375 0  0.578125 0.0234375 0  0.5859375 0.0234375 0  0.59375 0.0234375 0  0.6015625 0.0234375 0  0.609375 0.0234375 0  0.6171875 0.0234375 0  0.625 0.0234375 0  0.6328125 0.0234375 0  0.640625 0.0234375 0  0.6484375 0.0234375 0  0.65625 0.0234375 0  0.6640625 0.0234375 0  0.671875 0.0234375 0  0.6796875 0.0234375 0  0.6875 0.0234375 0  0.6953125 0.0234375 0  0.703125 0.0234375 0  0.7109375 0.0234375 0  0.71875 0.0234375 0  0.7265625 0.0234375 0  0.734375 0.0234375 0  0.7421875 0.0234375 0  0.75 0.0234375 0  0.7578125 0.0234375 0  0.765625 0.0234375 0  0.7734375 0.0234375 0  0.78125 0.0234375 0  0.7890625 0.0234375 0  0.796875 0.0234375 0  0.8046875 0.0234375 0  0.8125 0.0234375 0  0.8203125 0.0234375 0  0.828125 0.0234375 0  0.8359375 0.0234375 0  0.84375 0.0234375 0  0.8515625 0.0234375 0  0.859375 0.0234375 0  0.8671
[...]
<CellData  Scalars="f_7805"> 
<DataArray  type="Float64"  Name="f_7805"  format="ascii">2.9652544821847396e-07   2.9621393554476094e-07   2.9616856923852070e-07   2.9585748875080688e-07   2.9545558894684229e-07   2.9514526624719283e-07   2.9438822476411154e-07   2.9407900470069142e-07   2.9296904788723079e-07   2.9266128201276714e-07   2.9120147708435339e-07   2.9089551847325439e-07   2.8908977045315835e-07   2.8878597084324885e-07   2.8663901515934061e-07   2.8633772306306627e-07   2.8385511517898745e-07   2.8355667445506293e-07   2.8074477707377443e-07   2.8044952574149992e-07   2.7731549383308449e-07   2.7702376302824110e-07   2.7357552682178810e-07   2.7328763984362379e-07   2.6953388587711396e-07   2.6925015730048085e-07   2.6520030760250483e-07   2.6492104244053907e-07   2.6058523191071843e-07   2.6031072482070569e-07   2.5569977687268373e-07   2.5543031140042505e-07   2.5055571193260418e-07   2.5029155979343370e-07   2.4516542955399132e-07   2.4490684994933551e-07   2.3954191536472153e-07   2.3928915433401794e-07   2.3369871687320757e-07   2.3345200668160544e-07   2.2764991083093479e-07   2.2740946939316543e-07   2.2141006932004624e-07   2.2117609966115613e-07   2.1499422464765475e-07   2.1476691440157476e-07   2.0841783313141450e-07   2.0819735407807773e-07   2.0169673786367787e-07   2.0148324550546569e-07   1.9484713054383318e-07   1.9464076372223356e-07   1.8788551247091175e-07   1.8768639302431498e-07   1.8082865479026040e-07   1.8063688725298263e-07   1.7369355809019038e-07   1.7350922943406561e-07   1.6649741144588415e-07   1.6632059086451319e-07   1.5925755100924052e-07   1.5908828974555977e-07   1.5199141824435925e-07   1.5182974946170503e-07   1.4471651790937778e-07   1.4456245660638057e-07   1.3745037588582916e-07   1.3730391885534948e-07   1.3021049695706321e-07   1.3007162278948559e-07   1.2301432263760000e-07   1.2288299176767808e-07   1.1587918915478571e-07   1.1575534395275795e-07   1.0882228568423654e-07   1.0870585059057131e-07   1.0186061293943521e-07   1.0175149464279520e-07   9.5010942215398895e-08   9.4909029873672999e-08   8.8289774985079749e-08   8.8194940488624108e-08   8.1713303145720781e-08   8.1625401422400802e-08   7.5297370011056845e-08   7.5216239372170286e-08   6.9057432143306314e-08   6.8982894669680860e-08   6.3008522116822233e-08   6.2940384084222468e-08   5.7165212303241062e-08   5.7103264645640842e-08   5.1541579765259540e-08   5.1485598575443320e-08   4.6151172343675197e-08   4.6100919409543230e-08   4.1006976019374168e-08   4.0962199394725672e-08   3.6121383628890063e-08   3.6081818237460889e-08   3.1506165008895230e-08   3.1471533280032003e-08   2.7172438641570244e-08   2.7142451176099249e-08   2.3130644869149741e-08   2.3105001133776100e-08   1.9390520742148448e-08   1.9368909790706706e-08   1.5961076561909333e-08   1.5943177781819658e-08   1.2850574173936231e-08   1.2836058055944263e-08   1.0066507064343281e-08   1.0055035993746698e-08   7.6155823073393959e-09   7.6068113747912218e-09   5.5037044072580095e-09   5.4972822372074055e-09   3.7359610740457197e-09   3.7315306687643060e-09   2.3166109664985940e-09   2.3138105637174579e-09   1.2490734327357982e-09   1.2475373747653107e-09   5.3592027266694115e-10   5.3527988496755719e-10   1.7886954227414682e-10   1.7875401930943157e-10   1.7878141463954496e-10   1.7881871090301842e-10   5.3565610769624619e-10   5.3547383174148879e-10   1.2486338836830645e-09   1.2478601930236591e-09   2.3159971203170106e-09   2.3142616150248804e-09   3.7351744486779026e-09   3.7321090615138867e-09   5.5027469478688090e-09   5.4979868288433104e-09   7.6144563814633054e-09   7.6076407746192424e-09   1.0065215456000525e-08   1.0055988566410575e-08   1.2849120076693539e-08   1.2837131925413045e-08   1.5959463570928816e-08   1.5944370836069296e-08   1.9388752845225143e-08   1.9370219686891503e-08   2.3128726436771051e-08   2.3106425304069272e-08   2.7170374416008504e-08   2.7143986833944472e-08   3.1503960092372360e-08   3.1473177427036941e-08   3.6119043470829184e-08   3.6083567670767977e-08   4.1004506402778490e-08   4.0964050714888467e-08   4.6148579370660023e-08   4.6102869028832195e-08   5.1538869841766808e-08   5.1487642726636077e-08   5.7162392122988971e-08   5.7105399391182790e-08   6.3005598644488946e-08   6.2942605325893868e-08   6.9054412597060544e-08   6.8985198158543970e-08   7.5294261844379782e-08   7.5218620718806735e-08   8.1710114028631036e-08   8.1627856107622010e-08   8.8286512784809171e-08   8.8197463874410975e-08   9.5007614976492724e-08   9.4911617214167712e-08   1.0185722886339708e-07   1.0175414109585706e-07   1.0881885310875714e-07   1.0870855122920865e-07   1.1587571653253986e-07   1.1575809377697532e-07   1.2301081851474244e-07   1.2288578571626127e-07   1.3020696995143369e-07   1.3007445575189742e-07   1.3744683466488389e-07   1.3730678568384105e-07   1.4471297116800682e-07   1.4456535212777731e-07   1.5198787468250436e-07   1.5183266848974100e-07   1.5925401930947214e-07   1.5909122709259993e-07   1.6649390025093062e-07   1.6632354135343191e-07   1.7369007598047732e-07   1.7351218791001809e-07   1.8082521026158649e-07   1.8063984859508370e-07   1.8788211391218429e-07   1.8768935215705075e-07   1.9484378621501594e-07   1.9464371562652696e-07   2.0169345587397840e-07   2.0148618522971996e-07   2.0841462141772653e-07   2.0820027674893374e-07   2.1499109095336865e-07   2.1476981523428256e-07   2.2140702117422448e-07   2.2117897396943464e-07   2.2764695552791264e-07   2.2741231259909414e-07   2.3369586145270198e-07   2.3345481432486054e-07   2.3953916659245559e-07   2.3929192208080208e-07   2.4516279390285202e-07   2.4490957360081813e-07   2.5055319556453102e-07   2.5029423529399276e-07   2.5569738562110436e-07   2.5543293484523666e-07   2.6058297126377532e-07   2.6031329246306848e-07   2.6519818268700237e-07   2.6492355069890942e-07   2.6953190144323913e-07   2.6925260276509545e-07   2.7357368722877371e-07   2.7329001928314474e-07   2.7731380303563835e-07   2.7702607339627588e-07   2.8074323860952073e-07   2.8045176418371032e-07   2.8385373215687577e-07   2.8355883831702310e-07   2.8663779024913701e-07   2.8633980990031958e-07   2.8908870587602267e-07   2.8878797843483628e-07   2.9120057460481417e-07   2.9089744484225138e-07   2.9296830880656008e-07   2.9266312545855599e-07   2.9438764991570988e-07   2.9408076384759608e-07   2.9545517869449926e-07   2.9514694008763584e-07   2.9616832348010001e-07   2.9585907649094081e-07   2.9652536640410041e-07   2.9621543551285632e-07   2.9621430824008952e-07   2.9554978570412217e-07   2.9585889647869190e-07   2.9519458130663787e-07   2.9514828680238020e-07   2.9448496628110227e-07   2.9408421185719763e-07   2.9342267086744738e-07   2.9266924413294425e-07   2.9201026518514519e-07   2.9090679714487210e-07   2.9025115833157974e-07   2.8880111953657497e-07   2.8814959233603930e-07   2.8635728580801774e-07   2.8571063293167811e-07   2.8358118454071884e-07   2.8294015786344940e-07   2.8047950444088285e-07   2.7984484301587259e-07   2.7705971835141920e-07   2.7643214650115048e-07   2.7333006532216670e-07   2.7271029079845154e-07   2.6929953080624360e-07   2.6868824301337659e-07   2.6497782504166992e-07   2.6437569332085903e-07   2.6037535967766644e-07   2.5978303165179021e-07   2.5550322270473191e-07   2.5492132268427539e-07   2.5037315175168767e-07   2.4980227920350049e-07   2.4499750581502658e-07   2.4443823389563255e-07   2.3938923548946694e-07   2.3884210964585258e-07   2.3356185177225852e-07   2.3302738841192966e-07   2.2752939351635755e-07   2.2700807874978158e-07   2.2130639361130707e-07   2.2079868206918719e-07   2.1490784397365296e-07   2.1441415770134716e-07   2.0834915943102452e-07   2.0786988686266852e-07   2.0164614058712278e-07   2.0118163560158848e-07   1.9481493575717010e-07   1.9436551681821186e-07   1.8787200206580251e-07   1.8743795144786557e-07   1.8083406580021081e-07   1.8041562890219824e-07   1.7371808211551775e-07   1.7331546686369343e-07   1.6654119418827308e-07   1.6615457053000127e-07   1.5932069191717579e-07   1.5895019140620779e-07   1.5207397027005111e-07   1.5171968574466323e-07   1.4481848737778237e-07   1.4448047273268620e-07   1.3757172247610989e-07   1.3724999252817072e-07   1.3035113379676798e-07   1.3004566424471541e-07   1.2317411650850719e-07   1.2288484398782535e-07   1.1605796081079185e-07   1.1578478304214943e-07   1.0901981028008813e-07   1.0876258631202407e-07   1.0207662056919208e-07   1.0183517111406354e-07   9.5245118559624035e-08   9.5019226421798927e-08   8.8541762064873377e-08   8.8331172660574513e-08   8.1982700182011377e-08   8.1787122149167831e-08   7.5583734386891310e-08   7.5402840283853081e-08   6.9360280466965760e-08   6.9193707558082599e-08   6.3327331383274711e-08   6.3174682509494400e-08   5.7499421150707883e-08   5.7360265683411620e-08   5.1890589824455975e-08   5.1764464699789122e-08   4.6514349676065988e-08   4.6400760507556829e-08   4.1383652641049427e-08   4.1282074907698965e-08   3.6510859116530412e-08   3.6420739423670182e-08   3.1907708183827216e-08   3.1828465593437786e-08   2.7585289327930964e-08   2.7516316755393317e-08   2.3554015721860875e-08   2.3494681395885704e-08   1.9823599140318949e-08   1.9773248122234938e-08   1.6403026563185708e-08   1.6360982322121267e-08   1.3300538524968299e-08   1.3266104565183725e-08   1.0523609262600934e-08   1.0496070798819262e-08   8.0789287092892659e-09   8.0575543862694126e-09   5.9723863778703374e-09   5.9564300297767868e-09   4.2090571723599566e-09   4.1977596180457665e-09   2.7931891620944994e-09   2.7857800315502740e-09   1.7281933476686465e-09   1.7238929356477588e-09   1.0166354435506958e-09   1.0146565856142156e-09   6.6022969701294794e-10   6.5977966359482603e-10   6.5983475835768469e-10   6.6011716225620869e-10   1.0154516123234684e-09   1.0156683250496457e-09   1.7262235757206503e-09   1.7255766480393519e-09   2.7904383612439236e-09   2.7881319433163097e-09   4.2055322025164980e-09   4.2007744590087917e-09   5.9680960304591526e-09   5.9601010459625083e-09   8.0738836859959854e-09   8.0618733562668376e-09   1.0517822149506205e-08   1.0501028053792726e-08   1.3294023762078097e-08   1.3271689012259480e-08   1.6395800409537405e-08   1.6367181471347552e-08   1.9815679634621228e-08   1.9780048116852693e-08   2.3545422638888946e-08   2.3502067045926794e-08   2.7576044130604244e-08   2.7524271574494633e-08   3.1897833971271943e-08   3.1836971838686347e-08   3.6500380568138897e-08   3.6429778138764383e-08   4.1372595956708979e-08   4.1291625968630337e-08   4.6502742512629925e-08   4.6410802671307354e-08   5.1878461228693391e-08   5.1774975655843464e-08   5.7486801488805829e-08   5.7371222107407936e-08   6.3314252267206755e-08   6.3186060119697720e-08   6.9346774677704384e-08   6.9205481173886799e-08   7.5569835794689558e-08   7.5414983886470572e-08   8.1968443664139570e-08   8.1799608944211765e-08   8.8527183420791884e-08   8.8343975142618831e-08   9.5230254423651649e-08   9.5032316440370188e-08   1.0206150832142306e-07   1.0184851994121981e-07   1.0900448795508879e-07   1.0877616471119084e-07   1.1604246700486652e-07   1.1579856133799647e-07   1.2315849028532432e-07   1.2289879213735818e-07   1.3033541459176279e-07   1.3005975190878698e-07   1.3755595000002615e-07   1.3726418914376889e-07   1.4480270151905843e-07   1.4449474758555762e-07   1.5205821099722390e-07   1.5173400804210445e-07   1.5930499918035892e-07   1.5896453035006197e-07   1.6652560782076523e-07   1.6616889538924335e-07   1.7370264173555724e-07   1.7332974704670631e-07   1.8081881071312230e-07   1.8042983402862692e-07   1.8785697116663977e-07   1.8745205141977802e-07   1.9480016743405541e-07   1.9437948189009509e-07   2.0163167262583878e-07   2.0119543644952662e-07   2.0833502892084537e-07   2.0788349465210049e-07   2.1489408721459605e-07   2.1442754415358563e-07   2.2129304602291817e-07   2.2081181952613574e-07   2.2751648954881055e-07   2.2702094023694505e-07   2.3354942481932443e-07   2.3303994769966861e-07   2.3937731780393991e-07   2.3885434130851420e-07   2.4498612842665050e-07   2.4445011336835529e-07   2.5036234438809721e-07   2.4981378283704759e-07   2.5549301371517818e-07   2.5493242779737404e-07   2.6036577596010541e-07   2.5979371658088345e-07   2.6496889197343443e-07   2.6438593746773925e-07   2.6929127217835084e-07   2.6869802689003766e-07   2.7332250327789027e-07   2.7271959606999413e-07   2.7705287332920259e-07   2.7644095602627859e-07   2.8047339512249648e-07   2.7985314088595476e-07   2.8357582780505220e-07   2.8294792944039629e-07   2.8635269669219491e-07   2.8571786488574328e-07   2.8879731120596927e-07   2.8815627268508574e-07   2.9090378087596494e-07   2.9025727648299240e-07   2.9266702931435681e-07   2.9201581198011330e-07   2.9408280601455061e-07   2.9342763862066044e-07   2.9514769562707728e-07   2.9448934879917421e-07   2.9585912367250742e-07   2.9519837389511559e-07   2.9621535444248241e-07   2.9555298551377043e-07   2.9555065939074501e-07   2.9453435649431213e-07   2.9519770084122878e-07   2.9418099490588481e-07   2.9449132545699373e-07   2.9347544045973018e-07   2.9343325558330300e-07   2.9241940941428328e-07   2.9202605106080222e-07   2.9101545615183225e-07   2.9027310835526819e-07   2.8926696961451807e-07   2.8817865454660250e-07   2.8717816665670462e-07   2.8574773813939275e-07   2.8475408270469842e-07   2.8298621741361853e-07   2.8200056008455647e-07   2.7990074659982174e-07   2.7892423421928933e-07   2.7649876001949750e-07   2.7553251781341083e-07   2.7278845428159499e-07   2.7183358310560886e-07   2.6877876860410647e-07   2.6783634225510093e-07   2.6447936332390224e-07   2.6355042592233540e-07   2.5990059665496630e-07   2.5898616010355768e-07   2.5505349975576926e-07   2.5415454128023385e-07   2.4994975016961430e-07   2.4906720994599846e-07   2.4460164370314903e-07   2.4373642257744536e-07   2.3902206481297338e-07   2.3817502211740959e-07   2.3322445557152800e-07   2.3239640704278724e-07   2.2722278328847444e-07   2.2641449909237078e-07   2.2103150686552831e-07   2.2024370973258527e-07   2.1466554196618415e-07   2.1389890544243546e-07   2.0814022508446187e-07   2.0739537190146033e-07   2.0147127659924123e-07   2.0074877716731622e-07   1.9467476290370331e-07   1.9397513393163997e-07   1.8776705770072178e-07   1.8709076094515093e-07   1.8076480255753513e-07   1.8011224370545581e-07   1.7368486681532623e-07   1.7305639450173294e-07   1.6654430694982491e-07   1.6594021191295740e-07   1.5936032548077257e-07   1.5878083985740007e-07   1.5215022952957461e-07   1.5159552629152182e-07   1.4493138912519711e-07   1.4440158165845675e-07   1.3772119535805087e-07   1.3721633718570449e-07   1.3053701848316378e-07   1.3005710313269702e-07   1.2339616607392072e-07   1.2294112708909103e-07   1.1631584132609143e-07   1.1588555242356838e-07   1.0931310161407916e-07   1.0890737698407459e-07   1.0240481739787990e-07   1.0202341214848638e-07   9.5607631580477346e-08   9.5250242324358244e-08   8.8937919413598283e-08   8.8604184995612356e-08   8.2411749048044675e-08   8.2101251412233650e-08   7.6044842824053221e-08   7.5757108017565759e-08   6.9852539394587776e-08   6.9587038706578187e-08   6.3849756773048333e-08   6.3605908005393143e-08   5.8050956394290258e-08   5.7828125261240840e-08   5.2470108275706717e-08   5.2267609929103557e-08   4.7120657362067848e-08   4.6937758038382321e-08   4.2015491135255416e-08   4.1851409920534996e-08   3.7166908567271201e-08   3.7020819275741295e-08   3.2586590490638138e-08   3.2457623652348566e-08   2.8285571458194067e-08   2.8172816411124379e-08   2.4274213159924179e-08   2.4176720241105879e-08   2.0562179460456398e-08   2.0478962291380835e-08   1.7158413117999465e-08   1.7088450978352282e-08   1.4071114240415192e-08   1.4013354524538468e-08   1.1307720530254531e-08   1.1261081280608655e-08   8.8748893667471040e-09   8.8382618780029996e-09   6.7784817674316370e-09   6.7507332550745418e-09   5.0235482685445530e-09   5.0035245954566968e-09   3.6143167576477610e-09   3.6008452122690304e-09   2.5541822883495973e-09   2.5460744075367261e-09   1.8456989012829232e-09   1.8417533311148723e-09   1.4905734711567473e-09   1.4895788589028413e-09   1.4896615947535310e-09   1.4903995048878665e-09   1.8429655297201173e-09   1.8442133770384863e-09   2.5496341891145849e-09   2.5501681818774856e-09   3.6079651917697246e-09   3.6065632777463834e-09   5.0154089634909827e-09   5.0108537718452112e-09   6.7685748792001293e-09   6.7596566511035453e-09   8.8632394313169702e-09   8.8487589322390133e-09   1.1294356404518485e-08   1.1273127811169290e-08   1.4056069032597108e-08   1.4026922787564712e-08   1.7141724107917189e-08   1.7103509735129930e-08   2.0543888009675223e-08   2.0495476883871722e-08   2.4254364612072847e-08   2.4194652675693158e-08   2.8264215029662326e-08   2.8192125450461785e-08   3.2563779151820397e-08   3.2478264914986615e-08   3.7142698915034056e-08   3.7042745343347516e-08   4.1989943256206780e-08   4.1874570452373111e-08   4.7093834687626817e-08   4.6962099892809429e-08   5.2442077429165021e-08   5.2293077291920990e-08   5.8021787029735869e-08   5.7854659780160336e-08   6.3819521407319478e-08   6.3633448930784080e-08   6.9821313232021115e-08   6.9615523037898341e-08   7.6012703574734078e-08   7.5786470655060327e-08   8.2378776739863143e-08   8.2131425313622263e-08   8.8904196198773059e-08   8.8635101337462898e-08   9.5573241536653955e-08   9.5281830667379970e-08   1.0236984632456098e-07   1.0205560060685782e-07   1.0927763682473638e-07   1.0894009239797389e-07   1.1627997143639922e-07   1.1591872053458516e-07   1.2335998078695332e-07   1.2297467271823026e-07   1.3050060837146333e-07   1.3009095036022458e-07   1.3768465164360452e-07   1.3725040953274869e-07   1.4489480345759137e-07   1.4443580226960975e-07   1.5211369376289066e-07   1.5162981811815105e-07   1.5932393144993071e-07   1.5881512584124463e-07   1.6650814624647605e-07   1.6597441516918869e-07   1.7364903056415872e-07   1.7309043850167742e-07   1.8072938119355183e-07   1.8014605245794519e-07   1.8773214074792753e-07   1.8712425917618266e-07   1.9464043875545821e-07   1.9400824726211913e-07   2.0143763230129790e-07   2.0078143228822436e-07   2.0810734612080012e-07   2.0742749674603657e-07   2.1463351204848045e-07   2.1393042935510406e-07   2.2100040772638303e-07   2.2027456363390218e-07   2.2719269447915184e-07   2.2644461563993526e-07   2.3319545426479470e-07   2.3242572078754869e-07   2.3899422561128496e-07   2.3820346965500802e-07   2.4457503845261066e-07   2.4376394269423981e-07   2.4992444778066759e-07   2.4909374375951103e-07   2.5502956603063627e-07   2.5418003237369164e-07   2.5987809412233569e-07   2.5901055465431806e-07   2.6445835108185851e-07   2.6357367282384352e-07   2.6875930217114898e-07   2.6785839323255402e-07   2.7277058545711290e-07   2.7185439282486502e-07   2.7648253675370038e-07   2.7555204398361002e-07   2.7988621287459225e-07   2.7894243768911671e-07   2.8297341313502636e-07   2.8201740493257691e-07   2.8573669904345772e-07   2.8476953632422900e-07   2.8816941212038197e-07   2.8719219983578472e-07   2.9026568977503843e-07   2.8927955661094050e-07   2.9202047914775662e-07   2.9102657476277878e-07   2.9342954877063592e-07   2.9242904104167068e-07   2.9448949775239143e-07   2.9348357018496472e-07   2.9519776179369261e-07   2.9418761165557828e-07   2.9555261440167639e-07   2.9453945362349599e-07   2.9453594028438933e-07   2.9316995259572045e-07   2.9418645209187868e-07   2.9281904476134124e-07   2.9348617732947524e-07   2.9211900219031944e-07   2.9243681946082806e-07   2.9107152372982761e-07   2.9104091671761921e-07   2.8967914172398515e-07   2.8930183857131803e-07   2.8794521682321347e-07   2.8722377913435573e-07   2.8587393076329058e-07   2.8481174787651579e-07   2.8347027688052037e-07   2.8207155801664184e-07   2.8074004845343259e-07   2.7900981279085070e-07   2.7768982498085546e-07   2.7563388971513664e-07   2.7432695648369384e-07   2.7195192292306684e-07   2.7065954590047046e-07   2.6797278364400886e-07   2.6669642963714532e-07   2.6370605888240543e-07   2.6244715632920378e-07   2.5916202835