<?xml version="1.0"?>
<VTKFile type="UnstructuredGrid"  version="0.1"  >
<UnstructuredGrid>
<Piece  NumberOfPoints="16641" NumberOfCells="32768">
<Points>
<DataArray  type="Float64"  NumberOfComponents="3"  format="ascii">0 0 0  0.0078125 0 0  0.015625 0 0  0.0234375 0 0  0.03125 0 0  0.0390625 0 0  0.046875 0 0  0.0546875 0 0  0.0625 0 0  0.0703125 0 0  0.078125 0 0  0.0859375 0 0  0.09375 0 0  0.1015625 0 0  0.109375 0 0  0.1171875 0 0  0.125 0 0  0.1328125 0 0  0.140625 0 0  0.1484375 0 0  0.15625 0 0  0.1640625 0 0  0.171875 0 0  0.1796875 0 0  0.1875 0 0  0.1953125 0 0  0.203125 0 0  0.2109375 0 0  0.21875 0 0  0.2265625 0 0  0.234375 0 0  0.2421875 0 0  0.25 0 0  0.2578125 0 0  0.265625 0 0  0.2734375 0 0  0.28125 0 0  0.2890625 0 0  0.296875 0 0  0.3046875 0 0  0.3125 0 0  0.3203125 0 0  0.328125 0 0  0.3359375 0 0  0.34375 0 0  0.3515625 0 0  0.359375 0 0  0.3671875 0 0  0.375 0 0  0.3828125 0 0  0.390625 0 0  0.3984375 0 0  0.40625 0 0  0.4140625 0 0  0.421875 0 0  0.4296875 0 0  0.4375 0 0  0.4453125 0 0  0.453125 0 0  0.4609375 0 0  0.46875 0 0  0.4765625 0 0  0.484375 0 0  0.4921875 0 0  0.5 0 0  0.5078125 0 0  0.515625 0 0  0.5234375 0 0  0.53125 0 0  0.5390625 0 0  0.546875 0 0  0.5546875 0 0  0.5625 0 0  0.5703125 0 0  0.578125 0 0  0.5859375 0 0  0.59375 0 0  0.6015625 0 0  0.609375 0 0  0.6171875 0 0  0.625 0 0  0.6328125 0 0  0.640625 0 0  0.6484375 0 0  0.65625 0 0  0.6640625 0 0  0.671875 0 0  0.6796875 0 0  0.6875 0 0  0.6953125 0 0  0.703125 0 0  0.7109375 0 0  0.71875 0 0  0.7265625 0 0  0.734375 0 0  0.7421875 0 0  0.75 0 0  0.7578125 0 0  0.765625 0 0  0.7734375 0 0  0.78125 0 0  0.7890625 0 0  0.796875 0 0  0.8046875 0 0  0.8125 0 0  0.8203125 0 0  0.828125 0 0  0.8359375 0 0  0.84375 0 0  0.8515625 0 0  0.859375 0 0  0.8671875 0 0  0.875 0 0  0.8828125 0 0  0.890625 0 0  0.8984375 0 0  0.90625 0 0  0.9140625 0 0  0.921875 0 0  0.9296875 0 0  0.9375 0 0  0.9453125 0 0  0.953125 0 0  0.9609375 0 0  0.96875 0 0  0.9765625 0 0  0.984375 0 0  0.9921875 0 0  1 0 0  0 0.0078125 0  0.0078125 0.0078125 0  0.015625 0.0078125 0  0.0234375 0.0078125 0  0.03125 0.0078125 0  0.0390625 0.0078125 0  0.046875 0.0078125 0  0.0546875 0.0078125 0  0.0625 0.0078125 0  0.0703125 0.0078125 0  0.078125 0.0078125 0  0.0859375 0.0078125 0  0.09375 0.0078125 0  0.1015625 0.0078125 0  0.109375 0.0078125 0  0.1171875 0.0078125 0  0.125 0.0078125 0  0.1328125 0.0078125 0  0.140625 0.0078125 0  0.1484375 0.0078125 0  0.15625 0.0078125 0  0.1640625 0.0078125 0  0.171875 0.0078125 0  0.1796875 0.0078125 0  0.1875 0.0078125 0  0.1953125 0.0078125 0  0.203125 0.0078125 0  0.2109375 0.0078125 0  0.21875 0.0078125 0  0.2265625 0.0078125 0  0.234375 0.0078125 0  0.2421875 0.0078125 0  0.25 0.0078125 0  0.2578125 0.0078125 0  0.265625 0.0078125 0  0.2734375 0.0078125 0  0.28125 0.0078125 0  0.2890625 0.0078125 0  0.296875 0.0078125 0  0.3046875 0.0078125 0  0.3125 0.0078125 0  0.3203125 0.0078125 0  0.328125 0.0078125 0  0.3359375 0.0078125 0  0.34375 0.0078125 0  0.3515625 0.0078125 0  0.359375 0.0078125 0  0.3671875 0.0078125 0  0.375 0.0078125 0  0.3828125 0.0078125 0  0.390625 0.0078125 0  0.3984375 0.0078125 0  0.40625 0.0078125 0  0.4140625 0.0078125 0  0.421875 0.0078125 0  0.4296875 0.0078125 0  0.4375 0.0078125 0  0.4453125 0.0078125 0  0.453125 0.0078125 0  0.4609375 0.0078125 0  0.46875 0.0078125 0  0.4765625 0.0078125 0  0.484375 0.0078125 0  0.4921875 0.0078125 0  0.5 0.0078125 0  0.5078125 0.0078125 0  0.515625 0.0078125 0  0.5234375 0.0078125 0  0.53125 0.0078125 0  0.5390625 0.0078125 0  0.546875 0.0078125 0  0.5546875 0.0078125 0  0.5625 0.0078125 0  0.5703125 0.0078125 0  0.578125 0.0078125 0  0.5859375 0.0078125 0  0.59375 0.0078125 0  0.6015625 0.0078125 0  0.609375 0.0078125 0  0.6171875 0.0078125 0  0.625 0.0078125 0  0.6328125 0.0078125 0  0.640625 0.0078125 0  0.6484375 0.0078125 0  0.65625 0.0078125 0  0.6640625 0.0078125 0  0.671875 0.0078125 0  0.6796875 0.0078125 0  0.6875 0.0078125 0  0.6953125 0.0078125 0  0.703125 0.0078125 0  0.7109375 0.0078125 0  0.71875 0.0078125 0  0.7265625 0.0078125 0  0.734375 0.0078125 0  0.7421875 0.0078125 0  0.75 0.0078125 0  0.7578125 0.0078125 0  0.765625 0.0078125 0  0.7734375 0.0078125 0  0.78125 0.0078125 0  0.7890625 0.0078125 0  0.796875 0.0078125 0  0.8046875 0.0078125 0  0.8125 0.0078125 0  0.8203125 0.0078125 0  0.828125 0.0078125 0  0.8359375 0.0078125 0  0.84375 0.0078125 0  0.8515625 0.0078125 0  0.859375 0.0078125 0  0.8671875 0.0078125 0  0.875 0.0078125 0  0.8828125 0.0078125 0  0.890625 0.0078125 0  0.8984375 0.0078125 0  0.90625 0.0078125 0  0.9140625 0.0078125 0  0.921875 0.0078125 0  0.9296875 0.0078125 0  0.9375 0.0078125 0  0.9453125 0.0078125 0  0.953125 0.0078125 0  0.9609375 0.0078125 0  0.96875 0.0078125 0  0.9765625 0.0078125 0  0.984375 0.0078125 0  0.9921875 0.0078125 0  1 0.0078125 0  0 0.015625 0  0.0078125 0.015625 0  0.015625 0.015625 0  0.0234375 0.015625 0  0.03125 0.015625 0  0.0390625 0.015625 0  0.046875 0.015625 0  0.0546875 0.015625 0  0.0625 0.015625 0  0.0703125 0.015625 0  0.078125 0.015625 0  0.0859375 0.015625 0  0.09375 0.015625 0  0.1015625 0.015625 0  0.109375 0.015625 0  0.1171875 0.015625 0  0.125 0.015625 0  0.1328125 0.015625 0  0.140625 0.015625 0  0.1484375 0.015625 0  0.15625 0.015625 0  0.1640625 0.015625 0  0.171875 0.015625 0  0.1796875 0.015625 0  0.1875 0.015625 0  0.1953125 0.015625 0  0.203125 0.015625 0  0.2109375 0.015625 0  0.21875 0.015625 0  0.2265625 0.015625 0  0.234375 0.015625 0  0.2421875 0.015625 0  0.25 0.015625 0  0.2578125 0.015625 0  0.265625 0.015625 0  0.2734375 0.015625 0  0.28125 0.015625 0  0.2890625 0.015625 0  0.296875 0.015625 0  0.3046875 0.015625 0  0.3125 0.015625 0  0.3203125 0.015625 0  0.328125 0.015625 0  0.3359375 0.015625 0  0.34375 0.015625 0  0.3515625 0.015625 0  0.359375 0.015625 0  0.3671875 0.015625 0  0.375 0.015625 0  0.3828125 0.015625 0  0.390625 0.015625 0  0.3984375 0.015625 0  0.40625 0.015625 0  0.4140625 0.015625 0  0.421875 0.015625 0  0.4296875 0.015625 0  0.4375 0.015625 0  0.4453125 0.015625 0  0.453125 0.015625 0  0.4609375 0.015625 0  0.46875 0.015625 0  0.4765625 0.015625 0  0.484375 0.015625 0  0.4921875 0.015625 0  0.5 0.015625 0  0.5078125 0.015625 0  0.515625 0.015625 0  0.5234375 0.015625 0  0.53125 0.015625 0  0.5390625 0.015625 0  0.546875 0.015625 0  0.5546875 0.015625 0  0.5625 0.015625 0  0.5703125 0.015625 0  0.578125 0.015625 0  0.5859375 0.015625 0  0.59375 0.015625 0  0.6015625 0.015625 0  0.609375 0.015625 0  0.6171875 0.015625 0  0.625 0.015625 0  0.6328125 0.015625 0  0.640625 0.015625 0  0.6484375 0.015625 0  0.65625 0.015625 0  0.6640625 0.015625 0  0.671875 0.015625 0  0.6796875 0.015625 0  0.6875 0.015625 0  0.6953125 0.015625 0  0.703125 0.015625 0  0.7109375 0.015625 0  0.71875 0.015625 0  0.7265625 0.015625 0  0.734375 0.015625 0  0.7421875 0.015625 0  0.75 0.015625 0  0.7578125 0.015625 0  0.765625 0.015625 0  0.7734375 0.015625 0  0.78125 0.015625 0  0.7890625 0.015625 0  0.796875 0.015625 0  0.8046875 0.015625 0  0.8125 0.015625 0  0.8203125 0.015625 0  0.828125 0.015625 0  0.8359375 0.015625 0  0.84375 0.015625 0  0.8515625 0.015625 0  0.859375 0.015625 0  0.8671875 0.015625 0  0.875 0.015625 0  0.8828125 0.015625 0  0.890625 0.015625 0  0.8984375 0.015625 0  0.90625 0.015625 0  0.9140625 0.015625 0  0.921875 0.015625 0  0.9296875 0.015625 0  0.9375 0.015625 0  0.9453125 0.015625 0  0.953125 0.015625 0  0.9609375 0.015625 0  0.96875 0.015625 0  0.9765625 0.015625 0  0.984375 0.015625 0  0.9921875 0.015625 0  1 0.015625 0  0 0.0234375 0  0.0078125 0.0234375 0  0.015625 0.0234375 0  0.0234375 0.0234375 0  0.03125 0.0234375 0  0.0390625 0.0234375 0  0.046875 0.0234375 0  0.0546875 0.0234375 0  0.0625 0.0234375 0  0.0703125 0.0234375 0  0.078125 0.0234375 0  0.0859375 0.0234375 0  0.09375 0.0234375 0  0.1015625 0.0234375 0  0.109375 0.0234375 0  0.1171875 0.0234375 0  0.125 0.0234375 0  0.1328125 0.0234375 0  0.140625 0.0234375 0  0.1484375 0.0234375 0  0.15625 0.0234375 0  0.1640625 0.0234375 0  0.171875 0.0234375 0  0.1796875 0.0234375 0  0.1875 0.0234375 0  0.1953125 0.0234375 0  0.203125 0.0234375 0  0.2109375 0.0234375 0  0.21875 0.0234375 0  0.2265625 0.0234375 0  0.234375 0.0234375 0  0.2421875 0.0234375 0  0.25 0.0234375 0  0.2578125 0.0234375 0  0.265625 0.0234375 0  0.2734375 0.0234375 0  0.28125 0.0234375 0  0.2890625 0.0234375 0  0.296875 0.0234375 0  0.3046875 0.0234375 0  0.3125 0.0234375 0  0.3203125 0.0234375 0  0.328125 0.0234375 0  0.3359375 0.0234375 0  0.34375 0.0234375 0  0.3515625 0.0234375 0  0.359375 0.0234375 0  0.3671875 0.0234375 0  0.375 0.0234375 0  0.3828125 0.0234375 0  0.390625 0.0234375 0  0.3984375 0.0234375 0  0.40625 0.0234375 0  0.4140625 0.0234375 0  0.421875 0.0234375 0  0.4296875 0.0234375 0  0.4375 0.0234375 0  0.4453125 0.0234375 0  0.453125 0.0234375 0  0.4609375 0.0234375 0  0.46875 0.0234375 0  0.4765625 0.0234375 0  0.484375 0.0234375 0  0.4921875 0.0234375 0  0.5 0.0234375 0  0.5078125 0.0234375 0  0.515625 0.0234375 0  0.5234375 0.0234375 0  0.53125 0.0234375 0  0.5390625 0.0234375 0  0.546875 0.0234375 0  0.5546875 0.0234375 0  0.5625 0.0234375 0  0.5703125 0.0234375 0  0.578125 0.0234375 0  0.5859375 0.0234375 0  0.59375 0.0234375 0  0.6015625 0.0234375 0  0.609375 0.0234375 0  0.6171875 0.0234375 0  0.625 0.0234375 0  0.6328125 0.0234375 0  0.640625 0.0234375 0  0.6484375 0.0234375 0  0.65625 0.0234375 0  0.6640625 0.0234375 0  0.671875 0.0234375 0  0.6796875 0.0234375 0  0.6875 0.0234375 0  0.6953125 0.0234375 0  0.703125 0.0234375 0  0.7109375 0.0234375 0  0.71875 0.0234375 0  0.7265625 0.0234375 0  0.734375 0.0234375 0  0.7421875 0.0234375 0  0.75 0.0234375 0  0.7578125 0.0234375 0  0.765625 0.0234375 0  0.7734375 0.0234375 0  0.78125 0.0234375 0  0.7890625 0.0234375 0  0.796875 0.0234375 0  0.8046875 0.0234375 0  0.8125 0.0234375 0  0.8203125 0.0234375 0  0.828125 0.0234375 0  0.8359375 0.0234375 0  0.84375 0.0234375 0  0.8515625 0.0234375 0  0.859375 0.0234375 0  0.8671
[...]
<CellData  Scalars="f_16676"> 
<DataArray  type="Float64"  Name="f_16676"  format="ascii">7.4296218989098917e-08   7.4234562949353418e-08   7.4206777753672773e-08   7.4145199423242446e-08   7.4028097933722998e-08   7.3966665942511764e-08   7.3760609960614234e-08   7.3699394895952624e-08   7.3404958215522075e-08   7.3344031169231444e-08   7.2961999476136819e-08   7.2901431398414507e-08   7.2432800852122384e-08   7.2372662161050570e-08   7.1818637214067046e-08   7.1758997512281678e-08   7.1120988122012954e-08   7.1061915964901712e-08   7.0341534260926990e-08   7.0283096952662799e-08   6.9482153391679508e-08   6.9424416798205879e-08   6.8544915827264765e-08   6.8487944200870932e-08   6.7532079445169171e-08   6.7475935257977917e-08   6.6446084247879625e-08   6.6390828032858671e-08   6.5289546484660730e-08   6.5235236683444042e-08   6.4065252348722934e-08   6.4011945165974534e-08   6.2776151265001892e-08   6.2723900529209411e-08   6.1425348784695545e-08   6.1374205815427402e-08   6.0016099103680844e-08   5.9966112585478654e-08   5.8551797222838657e-08   5.8503013085843195e-08   5.7035970769164235e-08   5.6988432076722894e-08   5.5472271497376429e-08   5.5426018340779885e-08   5.3864466492493266e-08   5.3819535893075622e-08   5.2216429094560618e-08   5.2172854913350333e-08   5.0532129567417098e-08   5.0489942422507643e-08   4.8815625533950831e-08   4.8774852725788523e-08   4.7071052200909057e-08   4.7031717645662378e-08   4.5302612396798805e-08   4.5264736567927641e-08   4.3514566446880227e-08   4.3478166325064902e-08   4.1711221909651615e-08   4.1676310941173309e-08   3.9896923199541866e-08   3.9863511263224864e-08   3.8076041120813189e-08   3.8044134503586329e-08   3.6252962337893508e-08   3.6222563719030687e-08   3.4432078807502699e-08   3.4403187251584684e-08   3.2617777198016669e-08   3.2590388156625564e-08   3.0814428321593540e-08   3.0788533643710191e-08   2.9026376604474546e-08   2.9001964555600279e-08   2.7257929620879179e-08   2.7234984910779850e-08   2.5513347715653610e-08   2.5491851534696016e-08   2.3796833740716701e-08   2.3776763804702862e-08   2.2112522930011111e-08   2.2093853533380275e-08   2.0464472937342927e-08   2.0447175014627062e-08   1.8856654061124972e-08   1.8840695256527348e-08   1.7292939679574618e-08   1.7278284424462767e-08   1.5777096919384911e-08   1.5763706517561755e-08   1.4312777580379841e-08   1.4300610300864331e-08   1.2903509337997870e-08   1.2892520515152474e-08   1.1552687244799292e-08   1.1542829385518691e-08   1.0263565551478564e-08   1.0254788449218962e-08   9.0392498670798107e-09   9.0315007224157946e-09   7.8826896773013539e-09   7.8759132247402303e-09   6.7966712389209876e-09   6.7908098796737487e-09   5.7838108674446749e-09   5.7788048078310064e-09   4.8465486341723063e-09   4.8423360293018351e-09   3.9871424878390606e-09   3.9836595902625044e-09   3.2076628150137067e-09   3.2048441279560481e-09   2.5099874523494754e-09   2.5077658871664874e-09   1.8957971627031321e-09   1.8941042001824789e-09   1.3665715860252758e-09   1.3653374411371013e-09   9.2358567477089773e-10   9.2273946448420445e-10   5.6790662242203673e-10   5.6737653616779553e-10   3.0039129252035656e-10   3.0010476489628319e-10   1.2168415440184035e-10   1.2156803970745132e-10   3.2215730610277729e-11   3.2196478782169565e-11   3.2201559725279171e-11   3.2205393258268956e-11   1.2164167710780667e-10   1.2159476852661487e-10   3.0032061481084510e-10   3.0014926427265727e-10   5.6780792065696955e-10   5.6743873325108222e-10   9.2345919523218987e-10   9.2281925755081688e-10   1.3664176442975835e-09   1.3654346998554634e-09   1.8956161428791745e-09   1.8942187659534992e-09   2.5097798060626068e-09   2.5078975735384819e-09   3.2074290603002214e-09   3.2049927211051193e-09   3.9868832078321699e-09   3.9838248495532405e-09   4.8462644756315561e-09   4.8425176879119564e-09   5.7835025391237249e-09   5.7790025734437891e-09   6.7963395097776470e-09   6.7910234352358661e-09   7.8823353745543214e-09   7.8761422292780937e-09   9.0388738741153169e-09   9.0317448119199960e-09   1.0263168805614366e-08   1.0255047237581904e-08   1.1552270734908698e-08   1.1543102465517759e-08   1.2903074101999233e-08   1.2892807459498592e-08   1.4312324702600966e-08   1.4300910663294684e-08   1.5776627527800099e-08   1.5764019833977692e-08   1.7292454942936770e-08   1.7278610214094956e-08   1.8856155185976860e-08   1.8841033023150688e-08   2.0463961164933406e-08   2.0447524247828221e-08   2.2111999533120250e-08   2.2094213709815417e-08   2.3796300020383494e-08   2.3777134389395589e-08   2.5512804997830403e-08   2.5492231982370530e-08   2.7257379253018620e-08   2.7235374667198885e-08   2.9025819952040790e-08   2.9002363058917041e-08   3.0813866764526238e-08   3.0788940325827726e-08   3.2617212127147158e-08   3.2590802444558678e-08   3.4431511620919573e-08   3.4403608568823899e-08   3.6252394437296422e-08   3.6222991486905719e-08   3.8075473907826484e-08   3.8044568142608004e-08   3.9896358072022878e-08   3.9863950194408986e-08   4.1710660257990128e-08   4.1676754587373294e-08   4.3514009650296993e-08   4.3478614112250068e-08   4.5302061819670118e-08   4.5265187926444469e-08   4.7070509189093836e-08   4.7032172011466704e-08   4.8815091411155077e-08   4.8775309541638667e-08   5.0531605631596101e-08   5.0490401139115841e-08   5.2215916614360304e-08   5.2173314990493582e-08   5.3863966703752309e-08   5.3819996800654188e-08   5.5471785599686412e-08   5.5426479559826170e-08   5.7035499922496851e-08   5.6988893100354992e-08   5.8551342544257317e-08   5.8503473420172010e-08   6.0015661664133918e-08   5.9966571750435737e-08   6.1424929605892173e-08   6.1374663345561385e-08   6.2775751316414560e-08   6.2724355974395220e-08   6.4064872544669234e-08   6.4012398092089785e-08   6.5289187681515337e-08   6.5235686672982184e-08   6.6445747241404820e-08   6.6391274685495919e-08   6.7531764967962269e-08   6.7476378191125172e-08   6.8544624546367282e-08   6.8488383050189783e-08   6.9481885906296077e-08   6.9424851218171722e-08   7.0341291100311191e-08   7.0283526617196444e-08   7.1120769743501038e-08   7.1062340568166507e-08   7.1818444001279904e-08   7.1759416769826133e-08   7.2432633113322979e-08   7.2373075811531086e-08   7.2961857442799919e-08   7.2901839206442574e-08   7.3404842041083094e-08   7.3344432930210183e-08   7.3760519719468962e-08   7.3699790444089895e-08   7.4028033620549896e-08   7.3967055161479556e-08   7.4206739283267832e-08   7.4145582243687197e-08   7.4296206197505688e-08   7.4234939270499237e-08   7.4234639329348026e-08   7.4084040052739715e-08   7.4145491923922562e-08   7.3994942883095927e-08   7.3967300955755310e-08   7.3816981955127893e-08   7.3700497963684585e-08   7.3550588251419597e-08   7.3345726681188064e-08   7.3196404730959561e-08   7.2903842293856996e-08   7.2755285357806232e-08   7.2375909634199058e-08   7.2228293280898248e-08   7.1763200721929916e-08   7.1616698381436421e-08   7.1067191748851626e-08   7.0921974269690052e-08   7.0289559547658249e-08   7.0145794766399347e-08   6.9432177566045440e-08   6.9290029889166728e-08   6.8497111361367668e-08   6.8356741358952454e-08   6.7486613629415611e-08   6.7348177640682694e-08   6.6403118780578005e-08   6.6266768531418531e-08   6.5249237077167855e-08   6.5115119310110560e-08   6.4027748346461246e-08   6.3896004463583402e-08   6.2741595284802289e-08   6.2612361004227480e-08   6.1393876369038915e-08   6.1267281395623893e-08   5.9987838392526836e-08   5.9864006103449677e-08   5.8526868643628768e-08   5.8405915789513742e-08   5.7014486745709039e-08   5.6896523167946265e-08   5.5454336178206100e-08   5.5339464543110676e-08   5.3850175499308997e-08   5.3738491049692150e-08   5.2205869291345749e-08   5.2097459616098233e-08   5.0525378850716037e-08   5.0420323672915708e-08   4.8812752644821846e-08   4.8711123628870891e-08   4.7072116558988935e-08   4.6973977137204399e-08   4.5307663956839433e-08   4.5213069175960753e-08   4.3523645578120867e-08   4.3432641966027091e-08   4.1724359298289365e-08   4.1636984751303592e-08   3.9914139774549384e-08   3.9830423465530716e-08   3.8097348003258740e-08   3.8017310310765842e-08   3.6278360813887176e-08   3.6202013272541291e-08   3.4461560324842217e-08   3.4388905596985391e-08   3.2651323386531540e-08   3.2582355255338662e-08   3.0852011037116412e-08   3.0786714421046153e-08   2.9067957996381666e-08   2.9006308985031926e-08   2.7303462222981355e-08   2.7245428134213417e-08   2.5562774560255652e-08   2.5508314018477101e-08   2.3850088495565182e-08   2.3799151530945079e-08   2.2169530057780305e-08   2.2122058226191668e-08   2.0525147877287016e-08   2.0481074400672283e-08   1.8920903432478909e-08   1.8880153359279060e-08   1.7360661506172364e-08   1.7323151891505093e-08   1.5848180875006186e-08   1.5813820980058228e-08   1.4387105254171263e-08   1.4355796764401857e-08   1.2980954519390350e-08   1.2952591780982349e-08   1.1633116227191676e-08   1.1607586501198965e-08   1.0346837453994867e-08   1.0324021187552779e-08   9.1252169735861861e-09   9.1049880875613400e-09   7.9711977918868827e-09   7.9534239842604285e-09   6.8875600569928639e-09   6.8721031212127524e-09   5.8769143615395578e-09   5.8636305191311971e-09   4.9416954535329382e-09   4.9304357001315780e-09   4.0841563708306219e-09   4.0747668348202243e-09   3.3063630133610951e-09   3.2986853262262081e-09   2.6101891661813781e-09   2.6040608437193633e-09   1.9973119853575795e-09   1.9925668188018266e-09   1.4692079575379963e-09   1.4656764136682133e-09   1.0271493429685809e-09   1.0246589722300775e-09   6.7220111049510688e-10   6.7057696215592599e-10   4.0521837195473020e-10   4.0428341529436420e-10   2.2684432213632026e-10   2.2641987264808956e-10   1.3750868925909769e-10   1.3741483885103470e-10   1.3742669972024205e-10   1.3748274986367719e-10   2.2659855959071948e-10   2.2662345638212629e-10   4.0480945411833809e-10   4.0462222420402486e-10   6.7163006523183718e-10   6.7105025154357202e-10   1.0264176058051361e-09   1.0252657020595399e-09   1.4683173681885814e-09   1.4664152510999349e-09   1.9962647832706644e-09   1.9934361414375376e-09   2.6089879851204703e-09   2.6050587435558831e-09   3.3050108750221674e-09   3.2998096142966132e-09   4.0826566775288204e-09   4.0760150465222021e-09   4.9400519799605429e-09   4.9318051012301067e-09   5.8751312456200350e-09   5.8651181123979298e-09   6.8856417898512611e-09   6.8737056537237360e-09   7.9691492069589064e-09   7.9551379552932521e-09   9.1230432348982328e-09   9.1068097570994197e-09   1.0344544043635420e-08   1.0325946585357382e-08   1.1630708931994726e-08   1.1609611436453404e-08   1.2978439416886250e-08   1.2954711852438152e-08   1.4384488697820436e-08   1.4358007371039885e-08   1.5845469478752641e-08   1.5816117332224677e-08   1.7357862128340796e-08   1.7325529022486552e-08   1.8918023159078857e-08   1.8882606137302318e-08   2.0522194004767335e-08   2.0483597541285857e-08   2.2166510075218414e-08   2.2124646305013415e-08   2.3847010066385544e-08   2.3801798996676252e-08   2.5559645503519683e-08   2.5511015206264309e-08   2.7300290494265628e-08   2.7248177279248694e-08   2.9064751668300716e-08   2.9009100236352127e-08   3.0848778279537227e-08   3.0789541855528326e-08   3.2648072446522761e-08   3.2585212891818476e-08   3.4458299506408927e-08   3.4391787410515196e-08   3.6275098457539653e-08   3.6204913208691251e-08   3.8094092465449177e-08   3.8020222299994735e-08   3.9910899407030231e-08   3.9833341437492169e-08   4.1721142427468775e-08   4.1639902649176476e-08   4.3520460484411806e-08   4.3435553760730943e-08   4.5304518854088367e-08   4.5215968880260550e-08   4.7069019574023044e-08   4.6976858819680340e-08   4.8809711797161476e-08   4.8713981427674419e-08   5.0522402032495820e-08   5.0423151809325429e-08   5.2202964247496101e-08   5.2100252407789994e-08   5.3847349808041540e-08   5.3741242923755017e-08   5.5451597231850434e-08   5.5342170048688170e-08   5.7011841731947170e-08   5.6899176988574775e-08   5.8524324527179356e-08   5.8408512755025602e-08   5.9985401897295343e-08   5.9866541201485837e-08   6.1391553960826270e-08   6.1269749782698421e-08   6.2739393154559293e-08   6.2614758016324830e-08   6.4025672394186590e-08   6.3898325626272916e-08   6.5247292896458698e-08   6.5117360348162195e-08   6.6401311643892745e-08   6.6268925377923564e-08   6.7484948474114538e-08   6.7350246445645087e-08   6.8495592776551318e-08   6.8358718497405334e-08   6.9430809780307533e-08   6.9291911968833708e-08   7.0288346417809164e-08   7.0147578634959037e-08   7.1066136749748169e-08   7.0923657021751958e-08   7.1762306937624434e-08   7.1618277365432670e-08   7.2375179750684682e-08   7.2229766106089544e-08   7.2903278594000837e-08   7.2756649901864849e-08   7.3345331042781658e-08   7.3197659148407172e-08   7.3700271861900329e-08   7.3551730982946487e-08   7.3967245469657805e-08   7.3818011737528495e-08   7.4145607731592731e-08   7.3995858764136768e-08   7.4234926629426622e-08   7.4084841455570659e-08   7.4084233217205150e-08   7.3844981015507977e-08   7.3995638637492064e-08   7.3756306425520395e-08   7.3818412092754480e-08   7.3579288106826167e-08   7.3552982777643133e-08   7.3314354301918612e-08   7.3199991308740929e-08   7.2962144374384441e-08   7.2760288759507137e-08   7.2523507550301536e-08   7.2234934847481329e-08   7.1999501037772745e-08   7.1625195490166492e-08   7.1391387569415723e-08   7.0932539811489724e-08   7.0700632410445294e-08   7.0158636634044451e-08   6.9928899858425562e-08   6.9305350477517732e-08   6.9078049252363564e-08   6.8374737078405817e-08   6.8150130505435723e-08   6.7369038445005122e-08   6.7147379174593393e-08   6.6290677461098572e-08   6.6072211080412473e-08   6.5142252052324431e-08   6.4927216491014980e-08   6.3926528929834106e-08   6.3715153884607763e-08   6.2646436926677957e-08   6.2438943306044888e-08   6.1305059943094128e-08   6.1101659333600241e-08   5.9905629518005154e-08   5.9706523673120073e-08   5.8451517044522071e-08   5.8256897397404579e-08   5.6946225648424554e-08   5.6756272849703996e-08   5.5393381749138124e-08   5.5208265230773182e-08   5.3796726323601302e-08   5.3616603889867018e-08   5.2160105894102365e-08   5.1985123340655629e-08   5.0487463261772852e-08   5.0317754023717560e-08   4.8782828008123912e-08   4.8618512837897085e-08   4.7050306787472819e-08   4.6891493463336135e-08   4.5294073433701769e-08   4.5140856499496137e-08   4.3518358905113409e-08   4.3370819441957093e-08   4.1727441091705258e-08   4.1585646522114681e-08   3.9925634509322968e-08   3.9789638434295019e-08   3.8117279905616647e-08   3.7987121974996786e-08   3.6306733802768176e-08   3.6182439619245138e-08   3.4498358002203726e-08   3.4379939059187524e-08   3.2696509076658080e-08   3.2583962730088876e-08   3.0905527874701752e-08   3.0798837349019497e-08   2.9129729063277212e-08   2.9028863491376423e-08   2.7373390733230625e-08   2.7278305230397748e-08   2.5640744092997897e-08   2.5551379864622695e-08   2.3935963275210787e-08   2.3852247758008881e-08   2.2263155280816742e-08   2.2185002317229840e-08   2.0626350084914412e-08   2.0553660130278995e-08   1.9029490928154664e-08   1.8962151290127568e-08   1.7476424817133253e-08   1.7414309926771367e-08   1.5970893256558458e-08   1.5913864970448009e-08   1.4516523235607753e-08   1.4464431168288349e-08   1.3116818490183865e-08   1.3069500376075098e-08   1.1775151062070905e-08   1.1732433146022317e-08   1.0494753175378287e-08   1.0456450630896130e-08   9.2787094498057424e-09   9.2446268239709939e-09   8.1299494695098491e-09   8.0998811534893331e-09   7.0512407254437923e-09   7.0249714494919722e-09   6.0451819482357658e-09   6.0224872999558227e-09   5.1141968475829065e-09   5.0948438122405014e-09   4.2605282733329844e-09   4.2442757948811748e-09   3.4862328122252591e-09   3.4728323737201181e-09   2.7931758334005564e-09   2.7823720553931523e-09   2.1830269945444166e-09   2.1745582500132823e-09   1.6572562195307312e-09   1.6508552638675264e-09   1.2171301572391737e-09   1.2125247717814251e-09   8.6370913008093607e-10   8.6062277762598880e-10   5.9784457958322082e-10   5.9599707031701582e-10   4.2017701518722399e-10   4.1928518141997416e-10   3.3113447120458237e-10   3.3091284928122293e-10   3.3093147564307913e-10   3.3109299339359674e-10   4.1956853338394997e-10   4.1982520145983679e-10   5.9683212496981282e-10   5.9689573038775640e-10   8.6229522098932871e-10   8.6187802122395309e-10   1.2153183108305783e-09   1.2141337267785764e-09   1.6550509433190871e-09   1.6528142494661942e-09   2.1804337755285234e-09   2.1768627856561848e-09   2.7902011248377097e-09   2.7850168716161880e-09   3.4828840180668549e-09   3.4758114249005045e-09   4.2568137303708674e-09   4.2475822738756959e-09   5.1101258053463581e-09   5.0984701668551108e-09   6.0407645466692046e-09   6.0264252512143900e-09   7.0464879704515963e-09   7.0292120116650377e-09   8.1248732063876352e-09   8.1044146558225309e-09   9.2733223346499605e-09   9.2494429340519317e-09   1.0489068644522561e-08   1.0461538379632719e-08   1.1769183299645528e-08   1.1737780954134534e-08   1.3110582393833888e-08   1.3075096082051182e-08   1.4510034380489969e-08   1.4470262057735087e-08   1.5964167857683821e-08   1.5919917806761636e-08   1.7469479690142593e-08   1.7420570983052783e-08   1.9022343448630772e-08   1.8968606382259229e-08   2.0619018146313857e-08   2.0560294651065507e-08   2.2255657251138387e-08   2.2191801271565861e-08   2.3928317952439050e-08   2.3859195798922490e-08   2.5632970659536122e-08   2.5558461330154975e-08   2.7365508709353734e-08   2.7285504181179498e-08   2.9121758259716537e-08   2.9036163748873355e-08   3.0897488344500673e-08   3.0806222534291432e-08   3.2688421066377274e-08   3.2591416302968383e-08   3.4490241902642242e-08   3.4387444357817863e-08   3.6298610099255123e-08   3.6189979899855072e-08   3.8109169128060024e-08   3.7994680451803676e-08   3.9917557182027561e-08   3.9797198319446193e-08   4.1719417683207360e-08   4.1593191065582808e-08   4.3510409778049590e-08   4.3378331971252462e-08   4.5286218794868505e-08   4.5148320459126948e-08   4.7042566638206537e-08   4.6898892453907824e-08   4.8775222095077870e-08   4.8625830654735286e-08   5.0480011028253459e-08   5.0324974694952834e-08   5.2152826432027012e-08   5.1992231164645527e-08   5.3789638326262842e-08   5.3623583471883207e-08   5.5386503464795164e-08   5.5215101518825194e-08   5.6939574834934712e-08   5.6762951169460533e-08   5.8445110925024128e-08   5.8263403486098606e-08   5.9899484737828438e-08   5.9712843712355039e-08   6.1299192527970413e-08   6.1107779980996197e-08   6.2640862242368261e-08   6.2444851725610473e-08   6.3921261643273641e-08   6.3720837775852146e-08   6.5137306094390911e-08   6.4932664116649409e-08   6.6286065991122939e-08   6.6077411292655573e-08   6.7364773817096783e-08   6.7152321440017805e-08   6.8370830809758749e-08   6.8154804928339833e-08   6.9301813218811299e-08   6.9082446596663454e-08   7.0155478142095199e-08   6.9933011568104490e-08   7.0929768924357903e-08   7.0704450628622815e-08   7.1622820105009336e-08   7.1394905156133793e-08   7.2232961901441910e-08   7.2002711586672857e-08   7.2758724214195496e-08   7.2526405404363785e-08   7.3198840138683442e-08   7.2964724640999723e-08   7.3552248962835846e-08   7.3316612867943454e-08   7.3818098615150602e-08   7.3581221655996203e-08   7.3995747485669440e-08   7.3757912468415853e-08   7.4084765442778664e-08   7.3846257968430150e-08   7.3845343905109415e-08   7.3517944603105675e-08   7.3757563874194879e-08   7.3429849438483107e-08   7.3581776416582594e-08   7.3254142397259181e-08   7.3318406793162802e-08   7.2991248102062475e-08   7.2968090583466553e-08   7.2641800838585036e-08   7.2531672435850668e-08   7.2206643125645395e-08   7.2010204198245672e-08   7.1686823780466817e-08   7.1404942473741886e-08   7.1083595456080632e-08   7.0717345643567406e-08   7.0398411663969634e-08   6.9949070383503937e-08   6.9632923297958699e-08   6.9101967691383250e-08   6.8788974673641445e-08   6.8178078439922279e-08   6.7868599096353464e-08   6.7179628468104338e-08   6.6874013970376536e-08   6.6109023224426783e-08   6.5807615462366522e-08   6.49688419