<?xml version="1.0"?>
<VTKFile type="UnstructuredGrid"  version="0.1"  >
<UnstructuredGrid>
<Piece  NumberOfPoints="16641" NumberOfCells="32768">
<Points>
<DataArray  type="Float64"  NumberOfComponents="3"  format="ascii">0 0 0  0.0078125 0 0  0.015625 0 0  0.0234375 0 0  0.03125 0 0  0.0390625 0 0  0.046875 0 0  0.0546875 0 0  0.0625 0 0  0.0703125 0 0  0.078125 0 0  0.0859375 0 0  0.09375 0 0  0.1015625 0 0  0.109375 0 0  0.1171875 0 0  0.125 0 0  0.1328125 0 0  0.140625 0 0  0.1484375 0 0  0.15625 0 0  0.1640625 0 0  0.171875 0 0  0.1796875 0 0  0.1875 0 0  0.1953125 0 0  0.203125 0 0  0.2109375 0 0  0.21875 0 0  0.2265625 0 0  0.234375 0 0  0.2421875 0 0  0.25 0 0  0.2578125 0 0  0.265625 0 0  0.2734375 0 0  0.28125 0 0  0.2890625 0 0  0.296875 0 0  0.3046875 0 0  0.3125 0 0  0.3203125 0 0  0.328125 0 0  0.3359375 0 0  0.34375 0 0  0.3515625 0 0  0.359375 0 0  0.3671875 0 0  0.375 0 0  0.3828125 0 0  0.390625 0 0  0.3984375 0 0  0.40625 0 0  0.4140625 0 0  0.421875 0 0  0.4296875 0 0  0.4375 0 0  0.4453125 0 0  0.453125 0 0  0.4609375 0 0  0.46875 0 0  0.4765625 0 0  0.484375 0 0  0.4921875 0 0  0.5 0 0  0.5078125 0 0  0.515625 0 0  0.5234375 0 0  0.53125 0 0  0.5390625 0 0  0.546875 0 0  0.5546875 0 0  0.5625 0 0  0.5703125 0 0  0.578125 0 0  0.5859375 0 0  0.59375 0 0  0.6015625 0 0  0.609375 0 0  0.6171875 0 0  0.625 0 0  0.6328125 0 0  0.640625 0 0  0.6484375 0 0  0.65625 0 0  0.6640625 0 0  0.671875 0 0  0.6796875 0 0  0.6875 0 0  0.6953125 0 0  0.703125 0 0  0.7109375 0 0  0.71875 0 0  0.7265625 0 0  0.734375 0 0  0.7421875 0 0  0.75 0 0  0.7578125 0 0  0.765625 0 0  0.7734375 0 0  0.78125 0 0  0.7890625 0 0  0.796875 0 0  0.8046875 0 0  0.8125 0 0  0.8203125 0 0  0.828125 0 0  0.8359375 0 0  0.84375 0 0  0.8515625 0 0  0.859375 0 0  0.8671875 0 0  0.875 0 0  0.8828125 0 0  0.890625 0 0  0.8984375 0 0  0.90625 0 0  0.9140625 0 0  0.921875 0 0  0.9296875 0 0  0.9375 0 0  0.9453125 0 0  0.953125 0 0  0.9609375 0 0  0.96875 0 0  0.9765625 0 0  0.984375 0 0  0.9921875 0 0  1 0 0  0 0.0078125 0  0.0078125 0.0078125 0  0.015625 0.0078125 0  0.0234375 0.0078125 0  0.03125 0.0078125 0  0.0390625 0.0078125 0  0.046875 0.0078125 0  0.0546875 0.0078125 0  0.0625 0.0078125 0  0.0703125 0.0078125 0  0.078125 0.0078125 0  0.0859375 0.0078125 0  0.09375 0.0078125 0  0.1015625 0.0078125 0  0.109375 0.0078125 0  0.1171875 0.0078125 0  0.125 0.0078125 0  0.1328125 0.0078125 0  0.140625 0.0078125 0  0.1484375 0.0078125 0  0.15625 0.0078125 0  0.1640625 0.0078125 0  0.171875 0.0078125 0  0.1796875 0.0078125 0  0.1875 0.0078125 0  0.1953125 0.0078125 0  0.203125 0.0078125 0  0.2109375 0.0078125 0  0.21875 0.0078125 0  0.2265625 0.0078125 0  0.234375 0.0078125 0  0.2421875 0.0078125 0  0.25 0.0078125 0  0.2578125 0.0078125 0  0.265625 0.0078125 0  0.2734375 0.0078125 0  0.28125 0.0078125 0  0.2890625 0.0078125 0  0.296875 0.0078125 0  0.3046875 0.0078125 0  0.3125 0.0078125 0  0.3203125 0.0078125 0  0.328125 0.0078125 0  0.3359375 0.0078125 0  0.34375 0.0078125 0  0.3515625 0.0078125 0  0.359375 0.0078125 0  0.3671875 0.0078125 0  0.375 0.0078125 0  0.3828125 0.0078125 0  0.390625 0.0078125 0  0.3984375 0.0078125 0  0.40625 0.0078125 0  0.4140625 0.0078125 0  0.421875 0.0078125 0  0.4296875 0.0078125 0  0.4375 0.0078125 0  0.4453125 0.0078125 0  0.453125 0.0078125 0  0.4609375 0.0078125 0  0.46875 0.0078125 0  0.4765625 0.0078125 0  0.484375 0.0078125 0  0.4921875 0.0078125 0  0.5 0.0078125 0  0.5078125 0.0078125 0  0.515625 0.0078125 0  0.5234375 0.0078125 0  0.53125 0.0078125 0  0.5390625 0.0078125 0  0.546875 0.0078125 0  0.5546875 0.0078125 0  0.5625 0.0078125 0  0.5703125 0.0078125 0  0.578125 0.0078125 0  0.5859375 0.0078125 0  0.59375 0.0078125 0  0.6015625 0.0078125 0  0.609375 0.0078125 0  0.6171875 0.0078125 0  0.625 0.0078125 0  0.6328125 0.0078125 0  0.640625 0.0078125 0  0.6484375 0.0078125 0  0.65625 0.0078125 0  0.6640625 0.0078125 0  0.671875 0.0078125 0  0.6796875 0.0078125 0  0.6875 0.0078125 0  0.6953125 0.0078125 0  0.703125 0.0078125 0  0.7109375 0.0078125 0  0.71875 0.0078125 0  0.7265625 0.0078125 0  0.734375 0.0078125 0  0.7421875 0.0078125 0  0.75 0.0078125 0  0.7578125 0.0078125 0  0.765625 0.0078125 0  0.7734375 0.0078125 0  0.78125 0.0078125 0  0.7890625 0.0078125 0  0.796875 0.0078125 0  0.8046875 0.0078125 0  0.8125 0.0078125 0  0.8203125 0.0078125 0  0.828125 0.0078125 0  0.8359375 0.0078125 0  0.84375 0.0078125 0  0.8515625 0.0078125 0  0.859375 0.0078125 0  0.8671875 0.0078125 0  0.875 0.0078125 0  0.8828125 0.0078125 0  0.890625 0.0078125 0  0.8984375 0.0078125 0  0.90625 0.0078125 0  0.9140625 0.0078125 0  0.921875 0.0078125 0  0.9296875 0.0078125 0  0.9375 0.0078125 0  0.9453125 0.0078125 0  0.953125 0.0078125 0  0.9609375 0.0078125 0  0.96875 0.0078125 0  0.9765625 0.0078125 0  0.984375 0.0078125 0  0.9921875 0.0078125 0  1 0.0078125 0  0 0.015625 0  0.0078125 0.015625 0  0.015625 0.015625 0  0.0234375 0.015625 0  0.03125 0.015625 0  0.0390625 0.015625 0  0.046875 0.015625 0  0.0546875 0.015625 0  0.0625 0.015625 0  0.0703125 0.015625 0  0.078125 0.015625 0  0.0859375 0.015625 0  0.09375 0.015625 0  0.1015625 0.015625 0  0.109375 0.015625 0  0.1171875 0.015625 0  0.125 0.015625 0  0.1328125 0.015625 0  0.140625 0.015625 0  0.1484375 0.015625 0  0.15625 0.015625 0  0.1640625 0.015625 0  0.171875 0.015625 0  0.1796875 0.015625 0  0.1875 0.015625 0  0.1953125 0.015625 0  0.203125 0.015625 0  0.2109375 0.015625 0  0.21875 0.015625 0  0.2265625 0.015625 0  0.234375 0.015625 0  0.2421875 0.015625 0  0.25 0.015625 0  0.2578125 0.015625 0  0.265625 0.015625 0  0.2734375 0.015625 0  0.28125 0.015625 0  0.2890625 0.015625 0  0.296875 0.015625 0  0.3046875 0.015625 0  0.3125 0.015625 0  0.3203125 0.015625 0  0.328125 0.015625 0  0.3359375 0.015625 0  0.34375 0.015625 0  0.3515625 0.015625 0  0.359375 0.015625 0  0.3671875 0.015625 0  0.375 0.015625 0  0.3828125 0.015625 0  0.390625 0.015625 0  0.3984375 0.015625 0  0.40625 0.015625 0  0.4140625 0.015625 0  0.421875 0.015625 0  0.4296875 0.015625 0  0.4375 0.015625 0  0.4453125 0.015625 0  0.453125 0.015625 0  0.4609375 0.015625 0  0.46875 0.015625 0  0.4765625 0.015625 0  0.484375 0.015625 0  0.4921875 0.015625 0  0.5 0.015625 0  0.5078125 0.015625 0  0.515625 0.015625 0  0.5234375 0.015625 0  0.53125 0.015625 0  0.5390625 0.015625 0  0.546875 0.015625 0  0.5546875 0.015625 0  0.5625 0.015625 0  0.5703125 0.015625 0  0.578125 0.015625 0  0.5859375 0.015625 0  0.59375 0.015625 0  0.6015625 0.015625 0  0.609375 0.015625 0  0.6171875 0.015625 0  0.625 0.015625 0  0.6328125 0.015625 0  0.640625 0.015625 0  0.6484375 0.015625 0  0.65625 0.015625 0  0.6640625 0.015625 0  0.671875 0.015625 0  0.6796875 0.015625 0  0.6875 0.015625 0  0.6953125 0.015625 0  0.703125 0.015625 0  0.7109375 0.015625 0  0.71875 0.015625 0  0.7265625 0.015625 0  0.734375 0.015625 0  0.7421875 0.015625 0  0.75 0.015625 0  0.7578125 0.015625 0  0.765625 0.015625 0  0.7734375 0.015625 0  0.78125 0.015625 0  0.7890625 0.015625 0  0.796875 0.015625 0  0.8046875 0.015625 0  0.8125 0.015625 0  0.8203125 0.015625 0  0.828125 0.015625 0  0.8359375 0.015625 0  0.84375 0.015625 0  0.8515625 0.015625 0  0.859375 0.015625 0  0.8671875 0.015625 0  0.875 0.015625 0  0.8828125 0.015625 0  0.890625 0.015625 0  0.8984375 0.015625 0  0.90625 0.015625 0  0.9140625 0.015625 0  0.921875 0.015625 0  0.9296875 0.015625 0  0.9375 0.015625 0  0.9453125 0.015625 0  0.953125 0.015625 0  0.9609375 0.015625 0  0.96875 0.015625 0  0.9765625 0.015625 0  0.984375 0.015625 0  0.9921875 0.015625 0  1 0.015625 0  0 0.0234375 0  0.0078125 0.0234375 0  0.015625 0.0234375 0  0.0234375 0.0234375 0  0.03125 0.0234375 0  0.0390625 0.0234375 0  0.046875 0.0234375 0  0.0546875 0.0234375 0  0.0625 0.0234375 0  0.0703125 0.0234375 0  0.078125 0.0234375 0  0.0859375 0.0234375 0  0.09375 0.0234375 0  0.1015625 0.0234375 0  0.109375 0.0234375 0  0.1171875 0.0234375 0  0.125 0.0234375 0  0.1328125 0.0234375 0  0.140625 0.0234375 0  0.1484375 0.0234375 0  0.15625 0.0234375 0  0.1640625 0.0234375 0  0.171875 0.0234375 0  0.1796875 0.0234375 0  0.1875 0.0234375 0  0.1953125 0.0234375 0  0.203125 0.0234375 0  0.2109375 0.0234375 0  0.21875 0.0234375 0  0.2265625 0.0234375 0  0.234375 0.0234375 0  0.2421875 0.0234375 0  0.25 0.0234375 0  0.2578125 0.0234375 0  0.265625 0.0234375 0  0.2734375 0.0234375 0  0.28125 0.0234375 0  0.2890625 0.0234375 0  0.296875 0.0234375 0  0.3046875 0.0234375 0  0.3125 0.0234375 0  0.3203125 0.0234375 0  0.328125 0.0234375 0  0.3359375 0.0234375 0  0.34375 0.0234375 0  0.3515625 0.0234375 0  0.359375 0.0234375 0  0.3671875 0.0234375 0  0.375 0.0234375 0  0.3828125 0.0234375 0  0.390625 0.0234375 0  0.3984375 0.0234375 0  0.40625 0.0234375 0  0.4140625 0.0234375 0  0.421875 0.0234375 0  0.4296875 0.0234375 0  0.4375 0.0234375 0  0.4453125 0.0234375 0  0.453125 0.0234375 0  0.4609375 0.0234375 0  0.46875 0.0234375 0  0.4765625 0.0234375 0  0.484375 0.0234375 0  0.4921875 0.0234375 0  0.5 0.0234375 0  0.5078125 0.0234375 0  0.515625 0.0234375 0  0.5234375 0.0234375 0  0.53125 0.0234375 0  0.5390625 0.0234375 0  0.546875 0.0234375 0  0.5546875 0.0234375 0  0.5625 0.0234375 0  0.5703125 0.0234375 0  0.578125 0.0234375 0  0.5859375 0.0234375 0  0.59375 0.0234375 0  0.6015625 0.0234375 0  0.609375 0.0234375 0  0.6171875 0.0234375 0  0.625 0.0234375 0  0.6328125 0.0234375 0  0.640625 0.0234375 0  0.6484375 0.0234375 0  0.65625 0.0234375 0  0.6640625 0.0234375 0  0.671875 0.0234375 0  0.6796875 0.0234375 0  0.6875 0.0234375 0  0.6953125 0.0234375 0  0.703125 0.0234375 0  0.7109375 0.0234375 0  0.71875 0.0234375 0  0.7265625 0.0234375 0  0.734375 0.0234375 0  0.7421875 0.0234375 0  0.75 0.0234375 0  0.7578125 0.0234375 0  0.765625 0.0234375 0  0.7734375 0.0234375 0  0.78125 0.0234375 0  0.7890625 0.0234375 0  0.796875 0.0234375 0  0.8046875 0.0234375 0  0.8125 0.0234375 0  0.8203125 0.0234375 0  0.828125 0.0234375 0  0.8359375 0.0234375 0  0.84375 0.0234375 0  0.8515625 0.0234375 0  0.859375 0.0234375 0  0.8671
[...]
<CellData  Scalars="f_16813"> 
<DataArray  type="Float64"  Name="f_16813"  format="ascii">1.8568324881690278e-08   1.8557420607775951e-08   1.8545966698260651e-08   1.8535059281887753e-08   1.8501302604195756e-08   1.8490405938943777e-08   1.8434440210831076e-08   1.8423566761997653e-08   1.8345540608043693e-08   1.8334702692719912e-08   1.8234817975582441e-08   1.8224028142998657e-08   1.8102539066429388e-08   1.8091810156207844e-08   1.7949022563647769e-08   1.7938367636420732e-08   1.7774638312301940e-08   1.7764070534923387e-08   1.7579806428293607e-08   1.7569338950860736e-08   1.7364996286221782e-08   1.7354642127523454e-08   1.7130725388668474e-08   1.7120497336597870e-08   1.6877558119601259e-08   1.6867468648034605e-08   1.6606104384868306e-08   1.6596165586027396e-08   1.6317018143041947e-08   1.6307241673396526e-08   1.6010995830132978e-08   1.6001392867445242e-08   1.5688774681964569e-08   1.5679355891292071e-08   1.5351130958240956e-08   1.5341906464901381e-08   1.4998878072588571e-08   1.4989857440410474e-08   1.4632864633067034e-08   1.4624056846640778e-08   1.4253972397880858e-08   1.4245385847759827e-08   1.3863114151215270e-08   1.3854756621343815e-08   1.3461231504306147e-08   1.3453110161122836e-08   1.3049292627060524e-08   1.3041414009914068e-08   1.2628289915680149e-08   1.2620659928348672e-08   1.2199237601911583e-08   1.2191861505056464e-08   1.1763169309694309e-08   1.1756051714229437e-08   1.1321135565075718e-08   1.1314280426431330e-08   1.0874201265412877e-08   1.0867611878728027e-08   1.0423443113944492e-08   1.0417122110224142e-08   9.9699470259223521e-09   9.9638963692163006e-09   9.5148055125434449e-09   9.5090264982543275e-09   9.0591150490014008e-09   9.0536083033146604e-09   8.6039734329744586e-09   8.5987389134911562e-09   8.1504771399372842e-09   8.1455141376874733e-09   7.6997186816554989e-09   7.6950258242524198e-09   7.2527839742246264e-09   7.2483592304930936e-09   6.8107497220067930e-09   6.8065904079483945e-09   6.3746808237504531e-09   6.3707836099164216e-09   5.9456278071588673e-09   5.9419887274144224e-09   5.5246242980737495e-09   5.5212387597946203e-09   5.1126845303821515e-09   5.1095473260501231e-09   4.7108009026362016e-09   4.7079062228219592e-09   4.3199415872810405e-09   4.3172830350357989e-09   3.9410481982395859e-09   3.9386188048302780e-09   3.5750335224835157e-09   3.5728257644584060e-09   3.2227793210512669e-09   3.2207851386121587e-09   2.8851342048078066e-09   2.8833450214386016e-09   2.5629115900675001e-09   2.5613183333870310e-09   2.2568877390034632e-09   2.2554808627996088e-09   1.9677998895640426e-09   1.9665693969301255e-09   1.6963444794050223e-09   1.6952799469780015e-09   1.4431754681074890e-09   1.4422660713048463e-09   1.2089027617355533e-09   1.2081373009598572e-09   9.9409074351811890e-10   9.9345767124132530e-10   7.9925691420076217e-10   7.9874436290520664e-10   6.2487064534285604e-10   6.2446645620972863e-10   4.7135204855965073e-10   4.7104380086614685e-10   3.3907096343761103e-10   3.3884600457049268e-10   2.2834606655877445e-10   2.2819154259955880e-10   1.3944410378132245e-10   1.3934699056074641e-10   7.2579247625381483e-11   7.2526382196089936e-11   2.7912581313529933e-11   2.7890693748110359e-11   5.5517107066889168e-12   5.5474561581811504e-12   5.5505050727896404e-12   5.5504960116652620e-12   2.7908967310794137e-11   2.7899805865682266e-11   7.2573233943738090e-11   7.2541544265980781e-11   1.3943570488051987e-10   1.3936816545513695e-10   2.2833530263374409e-10   2.2821867846072460e-10   3.3905786036917758e-10   3.3887903493226892e-10   4.7133663785223657e-10   4.7108264480731136e-10   6.2485296404805640e-10   6.2451101854460522e-10   7.9923700482780583e-10   7.9879453439541372e-10   9.9406865393051499e-10   9.9351332885261732e-10   1.2088785450350312e-09   1.2081983081351411e-09   1.4431491825046001e-09   1.4423322782746859e-09   1.6963161880780624e-09   1.6953511910831869e-09   1.9677696605044320e-09   1.9666455029738035e-09   2.2568556448498485e-09   2.2555616434333379e-09   2.5628777079273055e-09   2.5614035894787707e-09   2.8850986160680122e-09   2.8834345424742856e-09   3.2227421111778163e-09   3.2208787031068587e-09   3.5749947808085509e-09   3.5729231403211980e-09   3.9410080177401485e-09   3.9387197497928481e-09   4.3199000643468269e-09   4.3173872969975164e-09   4.7107581368251294e-09   4.7080135401779243e-09   5.1126406241684552e-09   5.1096574280007122e-09   5.5245793565860209e-09   5.5213513665560760e-09   5.9455819379098958e-09   5.9421035503524173e-09   6.3746341363515274e-09   6.3709003515709683e-09   6.8107023278832278e-09   6.8067087619507200e-09   7.2527359863143223e-09   7.2484788812522643e-09   7.6996702141011483e-09   7.6951464464731549e-09   8.1504283077717550e-09   8.1456353955879131e-09   8.6039243517921153e-09   8.5988604597472357e-09   9.0590658346308855e-09   9.0537297775306903e-09   9.5147562807032986e-09   9.5091475251395624e-09   9.9698978918726641e-09   9.9640165560169385e-09   1.0423394192137840e-08   1.0417241043650451e-08   1.0874152669128739e-08   1.0867729121128960e-08   1.1321087406066659e-08   1.1314395511106048e-08   1.1763121697821406e-08   1.1756164139816305e-08   1.2199190644786566e-08   1.2191970728891562e-08   1.2628243718319641e-08   1.2620765358693653e-08   1.3049247291554083e-08   1.3041514997028444e-08   1.3461187129511249e-08   1.3453205987192704e-08   1.3863070832488510e-08   1.3854846489305808e-08   1.4253930226861325e-08   1.4245468869288473e-08   1.4632823697528240e-08   1.4624132029613527e-08   1.4998838456386165e-08   1.4989923676440283e-08   1.5351092741368263e-08   1.5341962517861518e-08   1.5688737940768649e-08   1.5679400388058370e-08   1.6010960637697970e-08   1.6001424292655348e-08   1.6316984569792127e-08   1.6307258370568624e-08   1.6606072499418705e-08   1.6596165768175842e-08   1.6877527989887766e-08   1.6867450421676165e-08   1.7130697083382002e-08   1.7120458744095387e-08   1.7364969876546484e-08   1.7354581213468546e-08   1.7579781989933602e-08   1.7569253859207687e-08   1.7774615927735254e-08   1.7763959643880072e-08   1.7949002324492457e-08   1.7938229738027518e-08   1.8102521075726978e-08   1.8091644686043350e-08   1.8234802349725723e-08   1.8223835462341243e-08   1.8345527477935947e-08   1.8334484419854369e-08   1.8434429721752711e-08   1.8423326142281329e-08   1.8501294913696798e-08   1.8490148241118030e-08   1.8545961971175033e-08   1.8534792246465462e-08   1.8568323280802600e-08   1.8557155222938799e-08   1.8557435482839377e-08   1.8524206410678538e-08   1.8535117159585148e-08   1.8501890470996744e-08   1.8490533262574023e-08   1.8457346494826982e-08   1.8423789830971660e-08   1.8390681113314919e-08   1.8335047602152347e-08   1.8302055468434077e-08   1.8224520721028702e-08   1.8191684009236147e-08   1.8092475900312534e-08   1.8059833594896234e-08   1.7939231649533594e-08   1.7906822687295476e-08   1.7765157461986531e-08   1.7733020527662811e-08   1.7570672916311733e-08   1.7538846245038035e-08   1.7356246674111527e-08   1.7324767869618300e-08   1.7122395365830962e-08   1.7091301238059123e-08   1.6869682362490485e-08   1.6839008784644651e-08   1.6598716433704434e-08   1.6568498217281282e-08   1.6310150294240681e-08   1.6280421079736402e-08   1.6004679042161211e-08   1.5975471203091363e-08   1.5683038492528616e-08   1.5654383050444523e-08   1.5346003410889272e-08   1.5317929959494053e-08   1.4994385651122901e-08   1.4966922287844486e-08   1.4629032202542067e-08   1.4602205466382796e-08   1.4250823151204635e-08   1.4224657965891625e-08   1.3860669560691482e-08   1.3835189182460702e-08   1.3459511277622876e-08   1.3434737247233621e-08   1.3048314667420100e-08   1.3024266766105156e-08   1.2628070285919237e-08   1.2604766495099259e-08   1.2199790492490146e-08   1.2177246957246579e-08   1.1764507010584118e-08   1.1742738006854558e-08   1.1323268441569384e-08   1.1302286347202471e-08   1.0877137737928138e-08   1.0856953007603554e-08   1.0427189641890688e-08   1.0407810786042732e-08   9.9745080957120797e-09   9.9559416635752121e-09   9.5201836298784131e-09   9.5024341967160871e-09   9.0653107354378057e-09   9.0483808940753222e-09   8.6109852268530607e-09   8.5948755836349134e-09   8.1583016018610434e-09   8.1430107768969404e-09   7.7083504042610715e-09   7.6938750363504330e-09   7.2622155965661268e-09   7.2485503525426844e-09   6.8209719483939218e-09   6.8081095370078942e-09   6.3856824470796097e-09   6.3736136374383639e-09   5.9573957366840593e-09   5.9461093812376421e-09   5.5371435916107612e-09   5.5266266536064592e-09   5.1259384308616728e-09   5.1161760162554564e-09   4.7247708789357389e-09   4.7157462726995003e-09   4.3346073792879378e-09   4.3263020860347822e-09   3.9563878660073605e-09   3.9487816548587599e-09   3.5910234993878472e-09   3.5840944529749525e-09   3.2393944708365842e-09   3.2331190383039025e-09   2.9023478823788934e-09   2.8967009363323996e-09   2.5806957058960490e-09   2.5756506031058387e-09   2.2752128270029353e-09   2.2707414727284599e-09   1.9866351782409629e-09   1.9827080940638974e-09   1.7156579661727318e-09   1.7122443611259414e-09   1.4629339965376470e-09   1.4600018414027058e-09   1.2290721015923680e-09   1.2265882061575189e-09   1.0146356733546798e-09   1.0125657664860655e-09   8.2014130636363903e-10   8.1845011864624884e-10   6.4605755313740154e-10   6.4470890193832840e-10   4.9280379539552731e-10   4.9176067211713864e-10   3.6074923371885866e-10   3.5997389303968636e-10   2.5021199812700948e-10   2.4966604901147875e-10   1.6145838166014751e-10   1.6110287992892789e-10   9.4702198864541862e-11   9.4497741089860163e-11   5.0104270686610298e-11   5.0011089198132768e-11   2.7772037045514028e-11   2.7750095809362513e-11   2.7759297996243623e-11   2.7768389142992152e-11   5.0066084125453122e-11   5.0065924885677702e-11   9.4638656471442590e-11   9.4588986299552837e-11   1.6136963598926568e-10   1.6123031362845478e-10   2.5009826223456861e-10   2.4982936249469153e-10   3.6061078064496619e-10   3.6017269065960266e-10   4.9264095749925424e-10   4.9199447223375589e-10   6.4587072128991875e-10   6.4497713806084996e-10   8.1993092898729951e-10   8.1875214077629868e-10   1.0144022553339106e-09   1.0129008426619476e-09   1.2288162030305709e-09   1.2269555241735610e-09   1.4626562313866665e-09   1.4604005107308542e-09   1.7153590007096865e-09   1.7126734149868938e-09   1.9863157294205340e-09   1.9831664916883358e-09   2.2748736606855158e-09   2.2712281017643672e-09   2.5803376349115443e-09   2.5761642821563047e-09   2.9019717644819512e-09   2.8972404176585627e-09   3.2390012065300558e-09   3.2336830105666339e-09   3.5906140295741056e-09   3.5846815441857720e-09   3.9559631695725051e-09   3.9493904353039294e-09   4.3341684704854514e-09   4.3269310712844126e-09   4.7243188046393861e-09   4.7163939266440009e-09   5.1254742676945755e-09   5.1168407541278696e-09   5.5366684428757105e-09   5.5273068449182629e-09   5.9569107291256279e-09   5.9468033526312065e-09   6.3851887274499849e-09   6.3743196753626032e-09   6.8204706798353702e-09   6.8088258901963090e-09   7.2617079546933263e-09   7.2492752341670998e-09   7.7078375730085554e-09   7.6946066257678911e-09   8.1577847689771604e-09   8.1437472208912674e-09   8.6104655790717649e-09   8.5956149970868529e-09   9.0647894531386726e-09   9.0491213598086534e-09   9.5196618814191395e-09   9.5031737644613115e-09   9.9739870309923562e-09   9.9566783478478484e-09   1.0426670385401330e-08   1.0408542562689758e-08   1.0876621381043158e-08   1.0857677808918638e-08   1.1322756033981790e-08   1.1303002055276026e-08   1.1763999550842167e-08   1.1743442445022625e-08   1.2199288917538317e-08   1.2177937879418327e-08   1.2627575459562155e-08   1.2605441572767847e-08   1.3047827367709284e-08   1.3024923572941322e-08   1.3459032183199767e-08   1.3435373241315925e-08   1.3860199236158672e-08   1.3835801686256904e-08   1.4250362031826275e-08   1.4225244144405772e-08   1.4628580578638954e-08   1.4602762304185369e-08   1.4993943652797533e-08   1.4967446566170243e-08   1.5345570994065673e-08   1.5318418235279898e-08   1.5682615427605229e-08   1.5654831639744757e-08   1.6004264907145910e-08   1.5975876172513120e-08   1.6309744474791854e-08   1.6280778250745321e-08   1.6598318133295510e-08   1.6568803189582022e-08   1.6869290626665736e-08   1.6839256986698825e-08   1.7122009125553109e-08   1.7091488014572577e-08   1.7355864813924103e-08   1.7324888617777573e-08   1.7570294373995598e-08   1.7538896612846002e-08   1.7764781366600161e-08   1.7732996688643963e-08   1.7938857504535235e-08   1.7906721705142024e-08   1.8092103816804681e-08   1.8059653888617113e-08   1.8224151702857037e-08   1.8191425921504475e-08   1.8334683878695161e-08   1.8301721926241898e-08   1.8423435226097395e-08   1.8390278347364579e-08   1.8490193585831638e-08   1.8456884751887891e-08   1.8534800643846541e-08   1.8501384615781751e-08   1.8557153542649879e-08   1.8523676272350444e-08   1.8524247976106849e-08   1.8468751433001742e-08   1.8502041773933725e-08   1.8446523531507688e-08   1.8457660594722237e-08   1.8402183930641717e-08   1.8391210704973194e-08   1.8335840003748887e-08   1.8302852756339119e-08   1.8247653050378599e-08   1.8192800580318725e-08   1.8137837237406134e-08   1.8061320291256810e-08   1.8006658716571484e-08   1.7908729480053595e-08   1.7854434818373778e-08   1.7735396392782260e-08   1.7681533239514903e-08   1.7541739041751232e-08   1.7488371171300122e-08   1.7328224221916243e-08   1.7275414338101361e-08   1.7095366419607962e-08   1.7043175929224017e-08   1.6843726607423043e-08   1.6792215416104910e-08   1.6573910924182489e-08   1.6523137252514136e-08   1.6286569241350806e-08   1.6236589458670038e-08   1.5982393618863970e-08   1.5933262092305924e-08   1.5662116654390033e-08   1.5613885610923989e-08   1.5326509730644325e-08   1.5279229130157674e-08   1.4976381165594161e-08   1.4930098583570522e-08   1.4612574270895322e-08   1.4567334789466416e-08   1.4235965323720572e-08   1.4191811430300107e-08   1.3847461457538567e-08   1.3804432950469770e-08   1.3447998477367882e-08   1.3406132378200648e-08   1.3038538605116010e-08   1.2997869077372188e-08   1.2620068160727935e-08   1.2580626435060631e-08   1.2193595184944327e-08   1.2155409490765399e-08   1.1760147009557028e-08   1.1723242513217067e-08   1.1320767781181497e-08   1.1285166530785733e-08   1.0876515944476755e-08   1.0842236821549595e-08   1.0428461691003341e-08   1.0395520369142191e-08   9.9776843798932696e-09   9.9460932905599354e-09   9.5252699365499292e-09   9.4950382421319670e-09   9.0723082356130593e-09   9.0434418099116939e-09   8.6198904745757472e-09   8.5923918907748791e-09   8.1691065442617706e-09   8.1429750705829221e-09   7.7210424025998506e-09   7.6962740055086353e-09   7.2767774579665771e-09   7.2533648131454477e-09   6.8373819683292988e-09   6.8153144793804928e-09   6.4039144625660306e-09   6.3831782873701818e-09   5.9774191900845289e-09   5.9579972748631809e-09   5.5589236048746456e-09   5.5407957258634860e-09   5.1494358900756627e-09   5.1325787027326409e-09   4.7499425290004802e-09   4.7343296246513707e-09   4.3614059285001263e-09   4.3470078982989444e-09   3.9847621003200718e-09   3.9715466063671328e-09   3.6209184060717516e-09   3.6088502595741421e-09   3.2707513712325452e-09   3.2597926174772762e-09   2.9351045734897735e-09   2.9252145834560774e-09   2.6147866104277419e-09   2.6059221788113458e-09   2.3105691515054604e-09   2.3026846009391540e-09   2.0231850790053421e-09   2.0162323702330662e-09   1.7533267224426586e-09   1.7472555701427364e-09   1.5016441906583008e-09   1.4964021846836130e-09   1.2687438056341117e-09   1.2642765373674960e-09   1.0551866418004960e-09   1.0514378353088099e-09   8.6148717434681726e-10   8.5839882203712341e-10   6.8811203980107258e-10   6.8562454224235100e-10   5.3547891186006264e-10   5.3353122143039253e-10   4.0395549516081075e-10   4.0248526319233132e-10   2.9385863945753066e-10   2.9280236650337093e-10   2.0545357629119601e-10   2.0474676517132573e-10   1.3895328002769644e-10   1.3853059126822843e-10   9.4517954776003383e-11   9.4313364090844295e-11   7.2254648445695387e-11   7.2201605852589439e-11   7.2216994858418178e-11   7.2248585066569983e-11   9.4405084530819059e-11   9.4454188216934237e-11   1.3876546446494286e-10   1.3876492002327753e-10   2.0519126691613250e-10   2.0507403232553657e-10   2.9352246684348775e-10   2.9322178123880979e-10   4.0354626742165874e-10   4.0299581199026568e-10   5.3499761269380901e-10   5.3413167050490173e-10   6.8755982609997950e-10   6.8631344048610851e-10   8.6086537338494507e-10   8.5917450448891235e-10   1.0544967480109921e-09   1.0522984271251580e-09   1.2679874769609066e-09   1.2652199582886679e-09   1.5008232445213965e-09   1.4974261539793152e-09   1.7524431312785324e-09   1.7483576120077151e-09   2.0222409654411883e-09   2.0174098196464270e-09   2.3095667831346854e-09   2.3039346099319636e-09   2.6137283941958305e-09   2.6072417231242872e-09   2.9339930497376016e-09   2.9266004696049394e-09   3.2695892073023275e-09   3.2612414900931269e-09   3.6197083896548231e-09   3.6103586091068676e-09   3.9835071323359314e-09   3.9731107770204635e-09   4.3601090156525707e-09   4.3486240961804347e-09   4.7486067759653099e-09   4.7359939261041739e-09   5.1480644913106239e-09   5.1342870627572868e-09   5.5575198360026259e-09   5.5425439865618378e-09   5.9759863988816823e-09   5.9597811738297721e-09   6.4024560594881610e-09   6.3849934659535704e-09   6.8359014165846445e-09   6.8171564906752254e-09   7.2752782630366303e-09   7.2552291296039352e-09   7.7195281011511251e-09   7.6981560259987240e-09   8.1675806923860765e-09   8.1448701267792951e-09   8.6183566353193294e-09   8.5942952526438906e-09   9.0707699655710738e-09   9.0453486900301505e-09   9.5237307715007079e-09   9.4969437987374123e-09   9.9761478193013301e-09   9.9479926288612350e-09   1.0426931181175107e-08   1.0397408540730795e-08   1.0874994860304151e-08   1.0844108821527686e-08   1.1319259406170485e-08   1.1287017292260707e-08   1.1758654514045807e-08   1.1725066898860091e-08   1.2192121602323355e-08   1.2157202281072199e-08   1.2618616361507880e-08   1.2582382313054833e-08   1.3037111268791090e-08   1.2999582609604708e-08   1.3446598062171966e-08   1.3407797991990428e-08   1.3846090168261448e-08   1.3806044907643762e-08   1.4234625078053539e-08   1.4193363798017669e-08   1.4611266665098624e-08   1.4568821409197953e-08   1.4975107440736502e-08   1.4931513040017421e-08   1.5325270741366669e-08   1.5280564722808015e-08   1.5660912842726822e-08   1.5615135332116031e-08   1.5981224996855064e-08   1.5934418617164504e-08   1.6285435387396785e-08   1.6237645154241569e-08   1.6572810999446935e-08   1.6524084215548425e-08   1.6842659400439588e-08   1.6793045551618207e-08   1.7094330428995076e-08   1.7043881084770480e-08   1.7327217789016220e-08   1.7275986511506211e-08   1.7540760546522301e-08   1.7488802812009440e-08   1.7734444527102251e-08   1.7681817664985801e-08   1.7907803611769729e-08   1.7854566765635725e-08   1.8060420929129315e-08   1.8006635043785280e-08   1.8191929941926295e-08   1.8137657777391721e-08   1.8302015427165782e-08   1.8247321594059779e-08   1.8390414353950314e-08   1.8335365349558711e-08   1.8456916679139712e-08   1.8401580866964456e-08   1.8501366129243350e-08   1.8445813505372628e-08   1.8523661146727877e-08   1.8467962447914012e-08   1.8468833055941495e-08   1.8391180656466727e-08   1.8446808279337174e-08   1.8369081988395447e-08   1.8402751286773473e-08   1.8325040838154076e-08   1.8336768805582116e-08   1.8259165158625615e-08   1.8249021297040376e-08   1.8171616183503920e-08   1.8139721897844259e-08   1.8062607408856155e-08   1.8009135539257563e-08   1.7932403727762712e-08   1.7857578143845548e-08   1.7781320639764973e-08   1.7685415816680288e-08   1.7609723460405279e-08   1.7493063978179403e-08   1.7418026477644135e-08   1.7280986407517493e-08   1.7206692021364084e-08   1.7049694179847858e-08   1.6976229426678755e-08   1.6799744489201307e-08   1.6727193881373225e-08   1.6531739354696855e-08   1.6460185154235140e-08   1.62463242