<?xml version="1.0"?>
<VTKFile type="UnstructuredGrid"  version="0.1"  >
<UnstructuredGrid>
<Piece  NumberOfPoints="81" NumberOfCells="128">
<Points>
<DataArray  type="Float64"  NumberOfComponents="3"  format="ascii">0 0 0  0.125 0 0  0.25 0 0  0.375 0 0  0.5 0 0  0.625 0 0  0.75 0 0  0.875 0 0  1 0 0  0 0.125 0  0.125 0.125 0  0.25 0.125 0  0.375 0.125 0  0.5 0.125 0  0.625 0.125 0  0.75 0.125 0  0.875 0.125 0  1 0.125 0  0 0.25 0  0.125 0.25 0  0.25 0.25 0  0.375 0.25 0  0.5 0.25 0  0.625 0.25 0  0.75 0.25 0  0.875 0.25 0  1 0.25 0  0 0.375 0  0.125 0.375 0  0.25 0.375 0  0.375 0.375 0  0.5 0.375 0  0.625 0.375 0  0.75 0.375 0  0.875 0.375 0  1 0.375 0  0 0.5 0  0.125 0.5 0  0.25 0.5 0  0.375 0.5 0  0.5 0.5 0  0.625 0.5 0  0.75 0.5 0  0.875 0.5 0  1 0.5 0  0 0.625 0  0.125 0.625 0  0.25 0.625 0  0.375 0.625 0  0.5 0.625 0  0.625 0.625 0  0.75 0.625 0  0.875 0.625 0  1 0.625 0  0 0.75 0  0.125 0.75 0  0.25 0.75 0  0.375 0.75 0  0.5 0.75 0  0.625 0.75 0  0.75 0.75 0  0.875 0.75 0  1 0.75 0  0 0.875 0  0.125 0.875 0  0.25 0.875 0  0.375 0.875 0  0.5 0.875 0  0.625 0.875 0  0.75 0.875 0  0.875 0.875 0  1 0.875 0  0 1 0  0.125 1 0  0.25 1 0  0.375 1 0  0.5 1 0  0.625 1 0  0.75 1 0  0.875 1 0  1 1 0  </DataArray>
</Points>
<Cells>
<DataArray  type="UInt32"  Name="connectivity"  format="ascii">0 1 10  0 9 10  1 2 11  1 10 11  2 3 12  2 11 12  3 4 13  3 12 13  4 5 14  4 13 14  5 6 15  5 14 15  6 7 16  6 15 16  7 8 17  7 16 17  9 10 19  9 18 19  10 11 20  10 19 20  11 12 21  11 20 21  12 13 22  12 21 22  13 14 23  13 22 23  14 15 24  14 23 24  15 16 25  15 24 25  16 17 26  16 25 26  18 19 28  18 27 28  19 20 29  19 28 29  20 21 30  20 29 30  21 22 31  21 30 31  22 23 32  22 31 32  23 24 33  23 32 33  24 25 34  24 33 34  25 26 35  25 34 35  27 28 37  27 36 37  28 29 38  28 37 38  29 30 39  29 38 39  30 31 40  30 39 40  31 32 41  31 40 41  32 33 42  32 41 42  33 34 43  33 42 43  34 35 44  34 43 44  36 37 46  36 45 46  37 38 47  37 46 47  38 39 48  38 47 48  39 40 49  39 48 49  40 41 50  40 49 50  41 42 51  41 50 51  42 43 52  42 51 52  43 44 53  43 52 53  45 46 55  45 54 55  46 47 56  46 55 56  47 48 57  47 56 57  48 49 58  48 57 58  49 50 59  49 58 59  50 51 60  50 59 60  51 52 61  51 60 61  52 53 62  52 61 62  54 55 64  54 63 64  55 56 65  55 64 65  56 57 66  56 65 66  57 58 67  57 66 67  58 59 68  58 67 68  59 60 69  59 68 69  60 61 70  60 69 70  61 62 71  61 70 71  63 64 73  63 72 73  64 65 74  64 73 74  65 66 75  65 74 75  66 67 76  66 75 76  67 68 77  67 76 77  68 69 78  68 77 78  69 70 79  69 78 79  70 71 80  70 79 80  </DataArray>
<DataArray  type="UInt32"  Name="offsets"  format="ascii">3 6 9 12 15 18 21 24 27 30 33 36 39 42 45 48 51 54 57 60 63 66 69 72 75 78 81 84 87 90 93 96 99 102 105 108 111 114 117 120 123 126 129 132 135 138 141 144 147 150 153 156 159 162 165 168 171 174 177 180 183 186 189 192 195 198 201 204 207 210 213 216 219 222 225 228 231 234 237 240 243 246 249 252 255 258 261 264 267 270 273 276 279 282 285 288 291 294 297 300 303 306 309 312 315 318 321 324 327 330 333 336 339 342 345 348 351 354 357 360 363 366 369 372 375 378 381 384 </DataArray>
<DataArray  type="UInt8"  Name="types"  format="ascii">5 5 5 5 5 5 5 5 5 5 5 5 5 5 5 5 5 5 5 5 5 5 5 5 5 5 5 5 5 5 5 5 5 5 5 5 5 5 5 5 5 5 5 5 5 5 5 5 5 5 5 5 5 5 5 5 5 5 5 5 5 5 5 5 5 5 5 5 5 5 5 5 5 5 5 5 5 5 5 5 5 5 5 5 5 5 5 5 5 5 5 5 5 5 5 5 5 5 5 5 5 5 5 5 5 5 5 5 5 5 5 5 5 5 5 5 5 5 5 5 5 5 5 5 5 5 5 5 </DataArray>
</Cells>
<CellData  Scalars="f_34857"> 
<DataArray  type="Float64"  Name="f_34857"  format="ascii">9.4573317404347303e-04   9.1645279922691154e-04   1.7807841008585529e-03   2.4093428405665028e-03   2.3355533202273288e-03   3.8138421574191550e-03   2.2857712669165898e-03   4.3897872996922901e-03   1.6620657788981397e-03   3.8013152036315209e-03   8.3023081004665621e-04   2.3946604915222624e-03   2.7651211278552254e-04   9.9393096934329321e-04   2.4052280474303511e-04   4.1877035217195702e-04   4.1579668921174345e-03   3.4530271080371665e-03   5.1164871565027303e-03   5.1072476106757934e-03   4.9840022637877186e-03   5.0054251960185356e-03   3.8434045885256092e-03   3.8932156742815041e-03   2.3660642866065330e-03   2.4271538535002874e-03   1.4182273404839960e-03   1.4679499690011732e-03   1.5538747275854678e-03   1.5766946931321957e-03   2.0107424401270588e-03   2.6847543129191413e-03   8.0626969106797081e-03   6.5037026372201240e-03   7.5027958411390885e-03   7.5063182958102354e-03   5.1926497187290664e-03   5.2097577107846193e-03   2.4965016411066547e-03   2.5201487911791663e-03   9.9786839373710115e-04   1.0189399019021176e-03   1.5749231992348526e-03   1.5861771893104545e-03   3.8855245573732227e-03   3.8859846699153687e-03   5.0325408110999930e-03   6.5585345656194276e-03   1.0485586820699460e-02   8.3050997653268364e-03   8.2030765697330126e-03   8.2185376617282899e-03   4.2990099661764777e-03   4.3143062952963546e-03   1.0722016590336146e-03   1.0822346371442203e-03   4.1577650938397735e-04   4.1795546893559155e-04   2.7124067606958120e-03   2.7082968143717369e-03   6.6080228939305805e-03   6.6050831560850133e-03   7.6566300568532038e-03   9.8079049804882662e-03   1.0010045191918282e-02   7.8083567179529963e-03   6.8047512982631576e-03   6.8271710067074566e-03   2.8301213691254096e-03   2.8401315439943969e-03   4.2063932943567155e-04   4.1891002892279887e-04   9.8687568961060811e-04   9.7709142097857603e-04   4.1927533611955687e-03   4.1825697109082053e-03   8.1495534938104131e-03   8.1508346577952272e-03   8.3593851715017108e-03   1.0541600976748933e-02   6.9143209138056456e-03   5.3075315018677599e-03   4.1243666777584119e-03   4.1399597387290184e-03   1.6465380453419796e-03   1.6366530752648218e-03   9.2856301884567316e-04   9.0300809902225086e-04   2.3858977569712588e-03   2.3573833437623131e-03   5.1596945313951113e-03   5.1422857570409802e-03   7.6173686726508563e-03   7.6231398244698406e-03   6.7348559665986359e-03   8.3403212536661449e-03   3.0053786510134410e-03   2.2585390100622279e-03   1.7217577887497237e-03   1.7022257094700397e-03   1.4313239020369987e-03   1.3697146828828984e-03   2.2914731636875510e-03   2.2128199106194553e-03   3.7915755532129287e-03   3.7250021633526129e-03   5.0498758363484286e-03   5.0180238760761725e-03   5.3285283495495828e-03   5.3371787583769027e-03   3.7356384011169343e-03   4.5011924124933227e-03   5.2766118931605764e-04   3.4430562949541537e-04   9.5777603319766871e-04   3.1177509794657964e-04   2.2714306523058531e-03   7.8519626843031947e-04   3.6850903413460211e-03   1.5936946728686105e-03   4.3670138365052898e-03   2.2593948849773098e-03   3.9189014781949401e-03   2.3933007377802112e-03   2.6087146700448740e-03   1.9200984685100015e-03   1.0932285388419657e-03   1.1239909773059255e-03   </DataArray> 
</CellData> 
</Piece>
</UnstructuredGrid>
</VTKFile>