<?xml version="1.0"?>
<VTKFile type="UnstructuredGrid"  version="0.1"  >
<UnstructuredGrid>
<Piece  NumberOfPoints="1089" NumberOfCells="2048">
<Points>
<DataArray  type="Float64"  NumberOfComponents="3"  format="ascii">0 0 0  0.03125 0 0  0.0625 0 0  0.09375 0 0  0.125 0 0  0.15625 0 0  0.1875 0 0  0.21875 0 0  0.25 0 0  0.28125 0 0  0.3125 0 0  0.34375 0 0  0.375 0 0  0.40625 0 0  0.4375 0 0  0.46875 0 0  0.5 0 0  0.53125 0 0  0.5625 0 0  0.59375 0 0  0.625 0 0  0.65625 0 0  0.6875 0 0  0.71875 0 0  0.75 0 0  0.78125 0 0  0.8125 0 0  0.84375 0 0  0.875 0 0  0.90625 0 0  0.9375 0 0  0.96875 0 0  1 0 0  0 0.03125 0  0.03125 0.03125 0  0.0625 0.03125 0  0.09375 0.03125 0  0.125 0.03125 0  0.15625 0.03125 0  0.1875 0.03125 0  0.21875 0.03125 0  0.25 0.03125 0  0.28125 0.03125 0  0.3125 0.03125 0  0.34375 0.03125 0  0.375 0.03125 0  0.40625 0.03125 0  0.4375 0.03125 0  0.46875 0.03125 0  0.5 0.03125 0  0.53125 0.03125 0  0.5625 0.03125 0  0.59375 0.03125 0  0.625 0.03125 0  0.65625 0.03125 0  0.6875 0.03125 0  0.71875 0.03125 0  0.75 0.03125 0  0.78125 0.03125 0  0.8125 0.03125 0  0.84375 0.03125 0  0.875 0.03125 0  0.90625 0.03125 0  0.9375 0.03125 0  0.96875 0.03125 0  1 0.03125 0  0 0.0625 0  0.03125 0.0625 0  0.0625 0.0625 0  0.09375 0.0625 0  0.125 0.0625 0  0.15625 0.0625 0  0.1875 0.0625 0  0.21875 0.0625 0  0.25 0.0625 0  0.28125 0.0625 0  0.3125 0.0625 0  0.34375 0.0625 0  0.375 0.0625 0  0.40625 0.0625 0  0.4375 0.0625 0  0.46875 0.0625 0  0.5 0.0625 0  0.53125 0.0625 0  0.5625 0.0625 0  0.59375 0.0625 0  0.625 0.0625 0  0.65625 0.0625 0  0.6875 0.0625 0  0.71875 0.0625 0  0.75 0.0625 0  0.78125 0.0625 0  0.8125 0.0625 0  0.84375 0.0625 0  0.875 0.0625 0  0.90625 0.0625 0  0.9375 0.0625 0  0.96875 0.0625 0  1 0.0625 0  0 0.09375 0  0.03125 0.09375 0  0.0625 0.09375 0  0.09375 0.09375 0  0.125 0.09375 0  0.15625 0.09375 0  0.1875 0.09375 0  0.21875 0.09375 0  0.25 0.09375 0  0.28125 0.09375 0  0.3125 0.09375 0  0.34375 0.09375 0  0.375 0.09375 0  0.40625 0.09375 0  0.4375 0.09375 0  0.46875 0.09375 0  0.5 0.09375 0  0.53125 0.09375 0  0.5625 0.09375 0  0.59375 0.09375 0  0.625 0.09375 0  0.65625 0.09375 0  0.6875 0.09375 0  0.71875 0.09375 0  0.75 0.09375 0  0.78125 0.09375 0  0.8125 0.09375 0  0.84375 0.09375 0  0.875 0.09375 0  0.90625 0.09375 0  0.9375 0.09375 0  0.96875 0.09375 0  1 0.09375 0  0 0.125 0  0.03125 0.125 0  0.0625 0.125 0  0.09375 0.125 0  0.125 0.125 0  0.15625 0.125 0  0.1875 0.125 0  0.21875 0.125 0  0.25 0.125 0  0.28125 0.125 0  0.3125 0.125 0  0.34375 0.125 0  0.375 0.125 0  0.40625 0.125 0  0.4375 0.125 0  0.46875 0.125 0  0.5 0.125 0  0.53125 0.125 0  0.5625 0.125 0  0.59375 0.125 0  0.625 0.125 0  0.65625 0.125 0  0.6875 0.125 0  0.71875 0.125 0  0.75 0.125 0  0.78125 0.125 0  0.8125 0.125 0  0.84375 0.125 0  0.875 0.125 0  0.90625 0.125 0  0.9375 0.125 0  0.96875 0.125 0  1 0.125 0  0 0.15625 0  0.03125 0.15625 0  0.0625 0.15625 0  0.09375 0.15625 0  0.125 0.15625 0  0.15625 0.15625 0  0.1875 0.15625 0  0.21875 0.15625 0  0.25 0.15625 0  0.28125 0.15625 0  0.3125 0.15625 0  0.34375 0.15625 0  0.375 0.15625 0  0.40625 0.15625 0  0.4375 0.15625 0  0.46875 0.15625 0  0.5 0.15625 0  0.53125 0.15625 0  0.5625 0.15625 0  0.59375 0.15625 0  0.625 0.15625 0  0.65625 0.15625 0  0.6875 0.15625 0  0.71875 0.15625 0  0.75 0.15625 0  0.78125 0.15625 0  0.8125 0.15625 0  0.84375 0.15625 0  0.875 0.15625 0  0.90625 0.15625 0  0.9375 0.15625 0  0.96875 0.15625 0  1 0.15625 0  0 0.1875 0  0.03125 0.1875 0  0.0625 0.1875 0  0.09375 0.1875 0  0.125 0.1875 0  0.15625 0.1875 0  0.1875 0.1875 0  0.21875 0.1875 0  0.25 0.1875 0  0.28125 0.1875 0  0.3125 0.1875 0  0.34375 0.1875 0  0.375 0.1875 0  0.40625 0.1875 0  0.4375 0.1875 0  0.46875 0.1875 0  0.5 0.1875 0  0.53125 0.1875 0  0.5625 0.1875 0  0.59375 0.1875 0  0.625 0.1875 0  0.65625 0.1875 0  0.6875 0.1875 0  0.71875 0.1875 0  0.75 0.1875 0  0.78125 0.1875 0  0.8125 0.1875 0  0.84375 0.1875 0  0.875 0.1875 0  0.90625 0.1875 0  0.9375 0.1875 0  0.96875 0.1875 0  1 0.1875 0  0 0.21875 0  0.03125 0.21875 0  0.0625 0.21875 0  0.09375 0.21875 0  0.125 0.21875 0  0.15625 0.21875 0  0.1875 0.21875 0  0.21875 0.21875 0  0.25 0.21875 0  0.28125 0.21875 0  0.3125 0.21875 0  0.34375 0.21875 0  0.375 0.21875 0  0.40625 0.21875 0  0.4375 0.21875 0  0.46875 0.21875 0  0.5 0.21875 0  0.53125 0.21875 0  0.5625 0.21875 0  0.59375 0.21875 0  0.625 0.21875 0  0.65625 0.21875 0  0.6875 0.21875 0  0.71875 0.21875 0  0.75 0.21875 0  0.78125 0.21875 0  0.8125 0.21875 0  0.84375 0.21875 0  0.875 0.21875 0  0.90625 0.21875 0  0.9375 0.21875 0  0.96875 0.21875 0  1 0.21875 0  0 0.25 0  0.03125 0.25 0  0.0625 0.25 0  0.09375 0.25 0  0.125 0.25 0  0.15625 0.25 0  0.1875 0.25 0  0.21875 0.25 0  0.25 0.25 0  0.28125 0.25 0  0.3125 0.25 0  0.34375 0.25 0  0.375 0.25 0  0.40625 0.25 0  0.4375 0.25 0  0.46875 0.25 0  0.5 0.25 0  0.53125 0.25 0  0.5625 0.25 0  0.59375 0.25 0  0.625 0.25 0  0.65625 0.25 0  0.6875 0.25 0  0.71875 0.25 0  0.75 0.25 0  0.78125 0.25 0  0.8125 0.25 0  0.84375 0.25 0  0.875 0.25 0  0.90625 0.25 0  0.9375 0.25 0  0.96875 0.25 0  1 0.25 0  0 0.28125 0  0.03125 0.28125 0  0.0625 0.28125 0  0.09375 0.28125 0  0.125 0.28125 0  0.15625 0.28125 0  0.1875 0.28125 0  0.21875 0.28125 0  0.25 0.28125 0  0.28125 0.28125 0  0.3125 0.28125 0  0.34375 0.28125 0  0.375 0.28125 0  0.40625 0.28125 0  0.4375 0.28125 0  0.46875 0.28125 0  0.5 0.28125 0  0.53125 0.28125 0  0.5625 0.28125 0  0.59375 0.28125 0  0.625 0.28125 0  0.65625 0.28125 0  0.6875 0.28125 0  0.71875 0.28125 0  0.75 0.28125 0  0.78125 0.28125 0  0.8125 0.28125 0  0.84375 0.28125 0  0.875 0.28125 0  0.90625 0.28125 0  0.9375 0.28125 0  0.96875 0.28125 0  1 0.28125 0  0 0.3125 0  0.03125 0.3125 0  0.0625 0.3125 0  0.09375 0.3125 0  0.125 0.3125 0  0.15625 0.3125 0  0.1875 0.3125 0  0.21875 0.3125 0  0.25 0.3125 0  0.28125 0.3125 0  0.3125 0.3125 0  0.34375 0.3125 0  0.375 0.3125 0  0.40625 0.3125 0  0.4375 0.3125 0  0.46875 0.3125 0  0.5 0.3125 0  0.53125 0.3125 0  0.5625 0.3125 0  0.59375 0.3125 0  0.625 0.3125 0  0.65625 0.3125 0  0.6875 0.3125 0  0.71875 0.3125 0  0.75 0.3125 0  0.78125 0.3125 0  0.8125 0.3125 0  0.84375 0.3125 0  0.875 0.3125 0  0.90625 0.3125 0  0.9375 0.3125 0  0.96875 0.3125 0  1 0.3125 0  0 0.34375 0  0.03125 0.34375 0  0.0625 0.34375 0  0.09375 0.34375 0  0.125 0.34375 0  0.15625 0.34375 0  0.1875 0.34375 0  0.21875 0.34375 0  0.25 0.34375 0  0.28125 0.34375 0  0.3125 0.34375 0  0.34375 0.34375 0  0.375 0.34375 0  0.40625 0.34375 0  0.4375 0.34375 0  0.46875 0.34375 0  0.5 0.34375 0  0.53125 0.34375 0  0.5625 0.34375 0  0.59375 0.34375 0  0.625 0.34375 0  0.65625 0.34375 0  0.6875 0.34375 0  0.71875 0.34375 0  0.75 0.34375 0  0.78125 0.34375 0  0.8125 0.34375 0  0.84375 0.34375 0  0.875 0.34375 0  0.90625 0.34375 0  0.9375 0.34375 0  0.96875 0.34375 0  1 0.34375 0  0 0.375 0  0.03125 0.375 0  0.0625 0.375 0  0.09375 0.375 0  0.125 0.375 0  0.15625 0.375 0  0.1875 0.375 0  0.21875 0.375 0  0.25 0.375 0  0.28125 0.375 0  0.3125 0.375 0  0.34375 0.375 0  0.375 0.375 0  0.40625 0.375 0  0.4375 0.375 0  0.46875 0.375 0  0.5 0.375 0  0.53125 0.375 0  0.5625 0.375 0  0.59375 0.375 0  0.625 0.375 0  0.65625 0.375 0  0.6875 0.375 0  0.71875 0.375 0  0.75 0.375 0  0.78125 0.375 0  0.8125 0.375 0  0.84375 0.375 0  0.875 0.375 0  0.90625 0.375 0  0.9375 0.375 0  0.96875 0.375 0  1 0.375 0  0 0.40625 0  0.03125 0.40625 0  0.0625 0.40625 0  0.09375 0.40625 0  0.125 0.40625 0  0.15625 0.40625 0  0.1875 0.40625 0  0.21875 0.40625 0  0.25 0.40625 0  0.28125 0.40625 0  0.3125 0.40625 0  0.34375 0.40625 0  0.375 0.40625 0  0.40625 0.40625 0  0.4375 0.40625 0  0.46875 0.40625 0  0.5 0.40625 0  0.53125 0.40625 0  0.5625 0.40625 0  0.59375 0.40625 0  0.625 0.40625 0  0.65625 0.40625 0  0.6875 0.40625 0  0.71875 0.40625 0  0.75 0.40625 0  0.78125 0.40625 0  0.8125 0.40625 0  0.84375 0.40625 0  0.875 0.40625 0  0.90625 0.40625 0  0.9375 0.40625 0  0.96875 0.40625 0  1 0.40625 0  0 0.4375 0  0.03125 0.4375 0  0.0625 0.4375 0  0.09375 0.4375 0  0.125 0.4375 0  0.15625 0.4375 0  0.1875 0.4375 0  0.21875 0.4375 0  0.25 0.4375 0  0.28125 0.4375 0  0.3125 0.4375 0  0.34375 0.4375 0  0.375 0.4375 0  0.40625 0.4375 0  0.4375 0.4375 0  0.46875 0.4375 0  0.5 0.4375 0  0.53125 0.4375 0  0.5625 0.4375 0  0.59375 0.4375 0  0.625 0.4375 0  0.65625 0.4375 0  0.6875 0.4375 0  0.71875 0.4375 0  0.75 0.4375 0  0.78125 0.4375 0  0.8125 0.4375 0  0.84375 0.4375 0  0.875 0.4375 0  0.90625 0.4375 0  0.9375 0.4375 0  0.96875 0.4375 0  1 0.4375 0  0 0.46875 0  0.03125 0.46875 0  0.0625 0.46875 0  0.09375 0.46875 0  0.125 0.46875 0  0.15625 0.46875 0  0.1875 0.46875 0  0.21875 0.46875 0  0.25 0.46875 0  0.28125 0.46875 0  0.3125 0.46875 0  0.34375 0.46875 0  0.375 0.46875 0  0.40625 0.46875 0  0.4375 0.46875 0  0.46875 0.46875 0  0.5 0.46875 0  0.53125 0.46875 0  0.5625 0.46875 0  0.59375 0.46875 0  0.625 0.46875 0  0.65625 0.46875 0  0.6875 0.46875 0  0.71875 0.46875 0  0.75 0.46875 0  0.78125 0.46875 0  0.8125 0.46875 0  0.84375 0.46875 0  0.875 0.46875 0  0.90625 0.46875 0  0.9375 0.46875 0  0.96875 0.46875 0  1 0.46875 0  0 0.5 0  0.03125 0.5 0  0.0625 0.5 0  0.09375 0.5 0  0.125 0.5 0  0.15625 0.5 0  0.1875 0.5 0  0.21875 0.5 0  0.25 0.5 0  0.28125 0.5 0  0.3125 0.5 0  0.34375 0.5 0  0.375 0.5 0  0.40625 0.5 0  0.4375 0.5 0  0.46875 0.5 0  0.5 0.5 0  0.53125 0.5 0  0.5625 0.5 0  0.59375 0.5 0  0.625 0.5 0  0.65625 0.5 0  0.6875 0.5 0  0.71875 0.5 0  0.75 0.5 0  0.78125 0.5 0  0.8125 0.5 0  0.84375 0.5 0  0.875 0.5 0  0.90625 0.5 0  0.9375 0.5 0  0.96875 0.5 0  1 0.5 0  0 0.53125 0  0.03125 0.53125 0  0.0625 0.53125 0  0.09375 0.53125 0  0.125 0.53125 0  0.15625 0.53125 0  0.1875 0.53125 0  0.21875 0.53125 0  0.25 0.53125 0  0.28125 0.53125 0  0.3125 0.53125 0  0.34375 0.53125 0  0.375 0.53125 0  0.40625 0.53125 0  0.4375 0.53125 0  0.46875 0.53125 0  0.5 0.53125 0  0.53125 0.53125 0  0.5625 0.53125 0  0.59375 0.53125 0  0.625 0.53125 0  0.65625 0.53125 0  0.6875 0.53125 0  0.71875 0.53125 0  0.75 0.53125 0  0.78125 0.531
[...]
<CellData  Scalars="f_40613"> 
<DataArray  type="Float64"  Name="f_40613"  format="ascii">4.3532000200686902e-05   4.3071138419440801e-05   4.2701224288621357e-05   4.2244453879641801e-05   4.1070402423720776e-05   4.0627239568815946e-05   3.8702220708823345e-05   3.8281213297963095e-05   3.5687696643389418e-05   3.5296373406090061e-05   3.2142682529626030e-05   3.1787354954709152e-05   2.8203413807093559e-05   2.7888964760793418e-05   2.4021274015105073e-05   2.3750978957397122e-05   1.9756977712617944e-05   1.9532379966628550e-05   1.5574394898693844e-05   1.5395245732668152e-05   1.1634254210805800e-05   1.1498522367502095e-05   8.0879668343279594e-06   7.9919178660126097e-06   5.0718084285625577e-06   5.0101508148576179e-06   2.7016826297154238e-06   2.6677748248991528e-06   1.0686673532327402e-06   1.0547775152287399e-06   2.3551504394788193e-07   2.3312321982176981e-07   2.3424136808047575e-07   2.3437236937216120e-07   1.0648950152410351e-06   1.0584691409372441e-06   2.6955558890022498e-06   2.6737440725032889e-06   5.0635617559742509e-06   5.0181316423217197e-06   8.0779162100895377e-06   8.0015561131405026e-06   1.1622785405443456e-05   1.1509394035974433e-05   1.5561949162289197e-05   1.5406880423357152e-05   1.9744035364769323e-05   1.9544289330388195e-05   2.4008336455380508e-05   2.3762689824184815e-05   2.8190984447031956e-05   2.7900056245736727e-05   3.2131247078663533e-05   3.1797498192173774e-05   3.5677703062313409e-05   3.5305371500026266e-05   3.8694058977597422e-05   3.8289037499465622e-05   4.1064384044475222e-05   4.0634055889915394e-05   4.2697561047325746e-05   4.2250634707398141e-05   4.3530780411038118e-05   4.3077262836201135e-05   4.3080475651950553e-05   4.1812145672984403e-05   4.2280251541720255e-05   4.1016834924210283e-05   4.0704398925987887e-05   3.9470185139798904e-05   3.8413055200876354e-05   3.7231292132621055e-05   3.5494127464771915e-05   3.4386061418045162e-05   3.2059724763317598e-05   3.1043771968916777e-05   2.8241789201821217e-05   2.7332820345809981e-05   2.4187003795111609e-05   2.3395765062329815e-05   2.0051149017773237e-05   1.9383842489776433e-05   1.5993116011249422e-05   1.5451156347012405e-05   1.2168802673167461e-05   1.1748759791960643e-05   8.7251254430306327e-06   8.4188553720707860e-06   5.7943761138710989e-06   5.5893346940157733e-06   3.4891402165247712e-06   3.3688672462142617e-06   1.8979721846675625e-06   1.8427270476448073e-06   1.0819935464424966e-06   1.0695176191719845e-06   1.0725449711581189e-06   1.0789213317032054e-06   1.8699825175702441e-06   1.8705598451824571e-06   3.4436644567150741e-06   3.4140096512138909e-06   5.7331292761546522e-06   5.6499723259436519e-06   8.6504196774306200e-06   8.4925547028347815e-06   1.2083463316300316e-05   1.1832571495637856e-05   1.5900380399690514e-05   1.5541743579297744e-05   1.9954552607234131e-05   1.9477630679280129e-05   2.4090258525367205e-05   2.3489108952465480e-05   2.8148659017273846e-05   2.7422182963974645e-05   3.1973902611492676e-05   3.1125908730030892e-05   3.5419116802303866e-05   3.4458200450294351e-05   3.8352056936661008e-05   3.7291298874806325e-05   4.0660202117352159e-05   3.9516694931545935e-05   4.2255125440687603e-05   4.1049330905513615e-05   4.3076069144467067e-05   4.1830946318016316e-05   4.1836986320743236e-05   3.9798711773281388e-05   4.1105920628491308e-05   3.9057278219322759e-05   3.9651125175902958e-05   3.7631794502983524e-05   3.7528168497608489e-05   3.5576883362388791e-05   3.4818504288658220e-05   3.2971464713291875e-05   3.1626203450489872e-05   2.9915645479451329e-05   2.8073897287237384e-05   2.6526832429381458e-05   2.4298043540056221e-05   2.2935205489770954e-05   2.0443677436743241e-05   1.9278714016258086e-05   1.6658840378689315e-05   1.5697781043989147e-05   1.3088895877461721e-05   1.2329914817911379e-05   9.8709489124903899e-06   9.3044324096223104e-06   7.1285821029289168e-06   6.7374971004826931e-06   4.9671105740914193e-06   4.7276598550261448e-06   3.4695378253058389e-06   3.3520762372573262e-06   2.6933681496259157e-06   2.6635443754760792e-06   2.6683983185916641e-06   2.6884781222568481e-06   3.3955736338085248e-06   3.4258936429573845e-06   4.8469525338846311e-06   4.8474487100928317e-06   6.9667813176346926e-06   6.8985334977337550e-06   9.6736378480564184e-06   9.5003712240367997e-06   1.2863561979007189e-05   1.2553048136498710e-05   1.6414052476412947e-05   1.5939356561132953e-05   2.0188776844539384e-05   1.9529303407407880e-05   2.4042812998690455e-05   2.3185110825264719e-05   2.7828221219945416e-05   2.6766516622418504e-05   3.1399732132022802e-05   3.0136170300583474e-05   3.4620332214428714e-05   3.3164916639393678e-05   3.7366533250154720e-05   3.5736762890938869e-05   3.9533127250851826e-05   3.7753337786054799e-05   4.1037256927437977e-05   3.9137669415086041e-05   4.1821678810726723e-05   3.9837126219519074e-05   3.9845920051283297e-05   3.7104512639376264e-05   3.9219458979503897e-05   3.6437172470621698e-05   3.7947470323742355e-05   3.5179016307390710e-05   3.6078686405352427e-05   3.3378406807886102e-05   3.3684876898894180e-05   3.1104589918775713e-05   3.0858015158001375e-05   2.8444985936865062e-05   2.7706704315837523e-05   2.5501804352400117e-05   2.4351989900727352e-05   2.2388109154675353e-05   2.0922708252506912e-05   1.9223478436924334e-05   1.7550542018492192e-05   1.6129419145200421e-05   1.4364968419768913e-05   1.3224709276074760e-05   1.1488292119385006e-05   1.0620844299412495e-05   9.0309524998827762e-06   8.4177617461631979e-06   7.0872853373156887e-06   6.7000079513249328e-06   5.7319018038056274e-06   5.5334943824890173e-06   5.0168242141599121e-06   4.9629685523643597e-06   4.9694889361076682e-06   5.0102971483076021e-06   5.5916935738763586e-06   5.6736278181179681e-06   6.8595292235672994e-06   6.9274622630440213e-06   8.7243006999337909e-06   8.7236382252036664e-06   1.1114399612326950e-05   1.0993182973403969e-05   1.3938058483982056e-05   1.3648967331624719e-05   1.7086880167327584e-05   1.6589058436960616e-05   2.0440006902365270e-05   1.9700642424016224e-05   2.3868768633144172e-05   2.2864366117625935e-05   2.7241631582516465e-05   2.5958930383479762e-05   3.0429256316885078e-05   2.8865757613817709e-05   3.3309470127643848e-05   3.1473552224600590e-05   3.5771961855814215e-05   3.3682575991885034e-05   3.7722518455591442e-05   3.5408468970744871e-05   3.9086640886301329e-05   3.6585459658623253e-05   3.9812394920415127e-05   3.7168819845705410e-05   3.7180154461631792e-05   3.3829540816372518e-05   3.6689619881005284e-05   3.3253609470699557e-05   3.5655455739442573e-05   3.2202725921335996e-05   3.4117434261537929e-05   3.0717419947408158e-05   3.2134714586259388e-05   2.8854910659475588e-05   2.9783526966292928e-05   2.6686868158723284e-05   2.7154220595854603e-05   2.4296642486506220e-05   2.4347786909760229e-05   2.1776060520010281e-05   2.1471984889351523e-05   1.9221907045251840e-05   1.8637211333446692e-05   1.6732219710003353e-05   1.5952270911415879e-05   1.4402536541369875e-05   1.3520206389904984e-05   1.2322238116576900e-05   1.1434348302071652e-05   1.0571123993165694e-05   9.7747356378621086e-06   9.2163547580216137e-06   8.6050452992100615e-06   8.3098774502192011e-06   7.9701487234616939e-06   7.8864337666725445e-06   7.8943900552191175e-06   7.9622281545299022e-06   8.3806525195331178e-06   8.5343075438806141e-06   9.4102493188403190e-06   9.5806770907816692e-06   1.0943643628049136e-05   1.1061147957518353e-05   1.2921970324343781e-05   1.2918884951694766e-05   1.5269301185550803e-05   1.5082594857611912e-05   1.7895566599695195e-05   1.7469271543352130e-05   2.0700021432037929e-05   1.9987392336709308e-05   2.3575121544509914e-05   2.2540442517685904e-05   2.6410661337655299e-05   2.5030631687908825e-05   2.9098012174140343e-05   2.7362657657278374e-05   3.1534297015537612e-05   2.9447370502941977e-05   3.3626338168641858e-05   3.1205191468269052e-05   3.5294222340959843e-05   3.2569147812952097e-05   3.6474338614809095e-05   3.3487394444578548e-05   3.7121755198989633e-05   3.3925104793788831e-05   3.3938636052250622e-05   3.0096427450411070e-05   3.3610151098865636e-05   2.9625725650502776e-05   3.2859947512065917e-05   2.8814289009623463e-05   3.1717025629098461e-05   2.7693541214701785e-05   3.0225453486898518e-05   2.6306763459743418e-05   2.8442641625772752e-05   2.4707391300096044e-05   2.6437125041001714e-05   2.2956948601000357e-05   2.4285932882361795e-05   2.1122688096426631e-05   2.2071640631992193e-05   1.9275021223784717e-05   1.9879212737653188e-05   1.7484830214298107e-05   1.7792753495805960e-05   1.5820762026510856e-05   1.5892289080886714e-05   1.4346606069327653e-05   1.4250703568812128e-05   1.3118855627059041e-05   1.2930946622755217e-05   1.2184546609312735e-05   1.1983620490768350e-05   1.1579457041184926e-05   1.1445039590896072e-05   1.1326737071775665e-05   1.1335837862731128e-05   1.1436022815559363e-05   1.1660177997866677e-05   1.1903068743253239e-05   1.2405593472468540e-05   1.2709913360618101e-05   1.3543469904948688e-05   1.3825572344678291e-05   1.5030147594657767e-05   1.5207232944470049e-05   1.6808603106383430e-05   1.6801904072825260e-05   1.8810645355819099e-05   1.8548458840782554e-05   2.0959541657111088e-05   2.0379990959529698e-05   2.3172972344822844e-05   2.2226393990127761e-05   2.5366199475217371e-05   2.4017063257200053e-05   2.7455326181805054e-05   2.5683614598994068e-05   2.9360518754627989e-05   2.7162512060244004e-05   3.1009063434301236e-05   2.8397498000821864e-05   3.2338133877092573e-05   2.9341723550105758e-05   3.3297152187358259e-05   2.9959484488649953e-05   3.3849634452836399e-05   3.0227477622061080e-05   3.0242743654121226e-05   2.6045794757704200e-05   3.0096273972051888e-05   2.5690149373560263e-05   2.9665470828669937e-05   2.5141301914950077e-05   2.8967160699922698e-05   2.4420650125116725e-05   2.8028398438404303e-05   2.3556150842088714e-05   2.6885396391432500e-05   2.2581203707673081e-05   2.5582126735569342e-05   2.1533357035661177e-05   2.4168641082692740e-05   2.0452872943497537e-05   2.2699164378789105e-05   1.9381197622971030e-05   2.1230030912292110e-05   1.8359389269100435e-05   1.9817538329109361e-05   1.7426560248894097e-05   1.8515800321872015e-05   1.6618391358195314e-05   1.7374679861619957e-05   1.5965774491808604e-05   1.6437882475615059e-05   1.5493635906935516e-05   1.5741283334014407e-05   1.5219985770033316e-05   1.5311553109818556e-05   1.5155231198160771e-05   1.5165136140797194e-05   1.5301779948026941e-05   1.5307620847598921e-05   1.5653950717465400e-05   1.5733527209177603e-05   1.6198194175200658e-05   1.6426519967493685e-05   1.6913616802703170e-05   1.7360039753512100e-05   1.7772787884332624e-05   1.8498328120878522e-05   1.8742798961084284e-05   1.9797807144699324e-05   1.9786535167920975e-05   2.1208760346192892e-05   2.0864109444251383e-05   2.2677249725885038e-05   2.1934403904645604e-05   2.4147194024409438e-05   2.2956657855373476e-05   2.5562526265989205e-05   2.3892039113238054e-05   2.6869344328721555e-05   2.4705134392393398e-05   2.8017966719414371e-05   2.5365295445864559e-05   2.8964806699359059e-05   2.5847780221201928e-05   2.9673981015731932e-05   2.6134632481559291e-05   3.0118574558927486e-05   2.6215249559772409e-05   2.6231691349481142e-05   2.1830862120538051e-05   2.6280289906841303e-05   2.1595742143003111e-05   2.6192229744311963e-05   2.1322679403326865e-05   2.5971231885921532e-05   2.1022513962627218e-05   2.5626058592402599e-05   2.0707074817961803e-05   2.5170143562173205e-05   2.0388682732125976e-05   2.4621072436425395e-05   2.0079667526098055e-05   2.3999920374085483e-05   1.9791904439561924e-05   2.3330463131089748e-05   1.9536377369653606e-05   2.2638286094501455e-05   1.9322779174214931e-05   2.1949822060654496e-05   1.9159160473668280e-05   2.1291353042979918e-05   1.9051638455118419e-05   2.0688013963236311e-05   1.9004176174960498e-05   2.0162836736722072e-05   1.9018440951169922e-05   1.9735872103937446e-05   1.9093747843724062e-05   1.9423423740568276e-05   1.9227091157271948e-05   1.9237424888220685e-05   1.9413263571610350e-05   1.9184982215873080e-05   1.9645059104505760e-05   1.9268105097726213e-05   1.9913552809681600e-05   1.9483631247658735e-05   2.0208447058337297e-05   1.9823351966063394e-05   2.0518471567334907e-05   2.0274332416538763e-05   2.0831822113268579e-05   2.0819414635654978e-05   2.1136621168346529e-05   2.1437883647728416e-05   2.1421382534131975e-05   2.2106270337776560e-05   2.1675461415914247e-05   2.2799258817610945e-05   2.1889471216289861e-05   2.3490661039144349e-05   2.2055648534134508e-05   2.4154417442255838e-05   2.2168148308622184e-05   2.4765579484415352e-05   2.2223251618446043e-05   2.5301227952795058e-05   2.2219469261243333e-05   2.5741280032330515e-05   2.2157524984032634e-05   2.6069138613463973e-05   2.2040203483044693e-05   2.2057191195462473e-05   1.7611537664857553e-05   2.2306495853043148e-05   1.7497848669515037e-05   2.2571492670371114e-05   1.7503289071742195e-05   2.2842372172336429e-05   1.7628016705841193e-05   2.3109022077010893e-05   1.7867545618353782e-05   2.3361381961466717e-05   1.8212877509635879e-05   2.3589828305026931e-05   1.8650839991277059e-05   2.3785560146448329e-05   1.9164604453863991e-05   2.3940960561583268e-05   1.9734353506424591e-05   2.4049913854666548e-05   2.0338065713201540e-05   2.4108062783402128e-05   2.0952383583505845e-05   2.4112994326541015e-05   2.1553529536308982e-05   2.4064346470298356e-05   2.2118234024623760e-05   2.3963832251324084e-05   2.2624640335798991e-05   2.3815180850385657e-05   2.3053151914578001e-05   2.3623998864711688e-05   2.3387190455663127e-05   2.3397557959592127e-05   2.3613836481581723e-05   2.3144517855163909e-05   2.3724328591339673e-05   2.2874595975387400e-05   2.3714402904359226e-05   2.2598197000654053e-05   2.3584460248262777e-05   2.2326016952442640e-05   2.3339555120130759e-05   2.2068637233065265e-05   2.2989207128298277e-05   2.1836124190332150e-05   2.2547042212753735e-05   2.1637649231814512e-05   2.2030277151734055e-05   2.1481143243863351e-05   2.1459066393881535e-05   2.1372997055873836e-05   2.0855734821331068e-05   2.1317816920975324e-05   2.0243923383558918e-05   2.1318240464809368e-05   1.9647676418832865e-05   2.1374814313319350e-05   1.9090499742085254e-05   2.1485929739497486e-05   1.8594417180065468e-05   2.1647807421406134e-05   1.8179050305839413e-05   2.1854517407455664e-05   1.7860742032355610e-05   1.7877605048322837e-05   1.3548237544730927e-05   1.8325616645669956e-05   1.3552286968460881e-05   1.8940531550164817e-05   1.3828347411721245e-05   1.9699106699334862e-05   1.4366180856285114e-05   2.0572495978132187e-05   1.5145424167345287e-05   2.1527326081652855e-05   1.6136334650295914e-05   2.2526979026671321e-05   1.7300927790455354e-05   2.3533016640357312e-05   1.8594449750628712e-05   2.4506682050949917e-05   1.9967118304146102e-05   2.5410414201281552e-05   2.1366058972568804e-05   2.6209313751999017e-05   2.2737358286208752e-05   2.6872502539829645e-05   2.4028153484146129e-05   2.7374324070733477e-05   2.5188677828464361e-05   2.7695339345208324e-05   2.6174183175865786e-05   2.7823080531878035e-05   2.6946666574799700e-05   2.7752534435362536e-05   2.7476335359227089e-05   2.7486338074608860e-05   2.7742755285483766e-05   2.7034679662303230e-05   2.7735638382024514e-05   2.6414909470704674e-05   2.7455240926721560e-05   2.5650876071899497e-05   2.6912356824203576e-05   2.4772013830047570e-05   2.6127907058429807e-05   2.3812216888229119e-05   2.5132141240119724e-05   2.2808542848245053e-05   2.3963481940258318e-05   2.1799795544820855e-05   2.2667055897485752e-05   2.0825040476598223e-05   2.1292967741683012e-05   1.9922108349779083e-05   1.9894381078269007e-05   1.9126141664293373e-05   1.8525478196154647e-05   1.8468236258608333e-05   1.7239372967524041e-05   1.7974224260951326e-05   1.6086051499142747e-05   1.7663637144380844e-05   1.5110411735374911e-05   1.7548877942668318e-05   1.4350466672317909e-05   1.7634620900567551e-05   1.3835766554675481e-05   1.3851825246844585e-05   9.7956801291766685e-06   1.4488978245977835e-05   9.9093168843673633e-06   1.5437318259908832e-05   1.0437799364657939e-05   1.6660782874017593e-05   1.1361179302972735e-05   1.8112651495449506e-05   1.2644262922612872e-05   1.9737311632459632e-05   1.4237932387825974e-05   2.1472397910596857e-05   1.6081030968068795e-05   2.3251206787470487e-05   1.8102726868487075e-05   2.5005284304481421e-05   2.0225255986614939e-05   2.6667081426539631e-05   2.2366932447971214e-05   2.8172571706793466e-05   2.4445307926058797e-05   2.9463729336499613e-05   2.6380356781187976e-05   3.0490772179298392e-05   2.8097564213864925e-05   3.1214084087012787e-05   2.9530799049912490e-05   3.1605743439814986e-05   3.0624861416409812e-05   3.1650600086208179e-05   3.1337608207733250e-05   3.1346860182796751e-05   3.1641575477488285e-05   3.0706157244706866e-05   3.1525036159778446e-05   2.9753107327886299e-05   3.0992453117853572e-05   2.8524365937228612e-05   3.0064310627843298e-05   2.7067223234644373e-05   2.8776331144453337e-05   2.5437791667358361e-05   2.7178107641598417e-05   2.3698855551030394e-05   2.5331204050511593e-05   2.1917464797487713e-05   2.3306796443031731e-05   2.0162364339828091e-05   2.1182944809976019e-05   1.8501356459848361e-05   1.9041598846450922e-05   1.6998694877121046e-05   1.6965450490846400e-05   1.5712606976500387e-05   1.5034750643244261e-05   1.4693033960404895e-05   1.3324207267779842e-05   1.3979668245087066e-05   1.1900076931866965e-05   1.3600353570723179e-05   1.0817551975790922e-05   1.3569896916345348e-05   1.0118531472437667e-05   1.0133128955174263e-05   6.4968997217849037e-06   1.0942653287717772e-05   6.7078238953535917e-06   1.2195188891942668e-05   7.4609018589810308e-06   1.3842961265219026e-05   8.7275331787755626e-06   1.5822920972343895e-05   1.0459308934482846e-05   1.8059142871094727e-05   1.2589848505127069e-05   2.0465747930160610e-05   1.5037351343328712e-05   2.2950221789710965e-05   1.7707754665169276e-05   2.5416993549246170e-05   2.0498367993737681e-05   2.7771131833360854e-05   2.3301839953320415e-05   2.9922013248093278e-05   2.6010302085041775e-05   3.1786821124361672e-05   2.8519529175329789e-05   3.3293740035013989e-05   3.0732955954434579e-05   3.4384723858661469e-05   3.2565396138438788e-05   3.5017731827359902e-05   3.3946321534303716e-05   3.5168347513510738e-05   3.4822575948888211e-05   3.4830719379889415e-05   3.5160420359301149e-05   3.4017787481711109e-05   3.4946831430556287e-05   3.2760788205914381e-05   3.4190004054297354e-05   3.1108056526258989e-05   3.2919039046242830e-05   2.9123172083169507e-05   3.1182828311594912e-05   2.6882520422481071e-05   2.9048180459763805e-05   2.4472362964263180e-05   2.6597258824976056e-05   2.1985527836287317e-05   2.3924429986012653e-05   1.9517847842466942e-05   2.1132643135066460e-05   1.7164480951237177e-05   1.8329478121792277e-05   1.5016252373182052e-05   1.5623011969733401e-05   1.3156155347374905e-05   1.3117659611785378e-05   1.1656140194314164e-05   1.0910144237871523e-05   1.0574308297273184e-05   9.0857459729904970e-06   9.9526100213216159e-06   7.7149648860005079e-06   9.8151241164513407e-06   6.8507161970557675e-06   6.8632485054899169e-06   3.7777136663222101e-06   7.8218091191459344e-06   4.0699449531410950e-06   9.3376858567130018e-06   5.0112224408475755e-06   1.1352949376414810e-05   6.5656832112366888e-06   1.3790394195476762e-05   8.6738258101331444e-06   1.6556488804763032e-05   1.1254781794106069e-05   1.9544976466595402e-05   1.4209427571361803e-05   2.2640976591947186e-05   1.7424207939911347e-05   2.5725421384441933e-05   2.0775518137153595e-05   2.8679652674582946e-05   2.4134472064756889e-05   3.1389999947859318e-05   2.7371871277438373e-05   3.3752162781980764e-05   3.0363182854350172e-05   3.5675229336935577e-05   3.2993334740402674e-05   3.7085177025214625e-05   3.5161144634935638e-05   3.79277216