<?xml version="1.0"?>
<VTKFile type="UnstructuredGrid"  version="0.1"  >
<UnstructuredGrid>
<Piece  NumberOfPoints="1089" NumberOfCells="2048">
<Points>
<DataArray  type="Float64"  NumberOfComponents="3"  format="ascii">0 0 0  0.03125 0 0  0.0625 0 0  0.09375 0 0  0.125 0 0  0.15625 0 0  0.1875 0 0  0.21875 0 0  0.25 0 0  0.28125 0 0  0.3125 0 0  0.34375 0 0  0.375 0 0  0.40625 0 0  0.4375 0 0  0.46875 0 0  0.5 0 0  0.53125 0 0  0.5625 0 0  0.59375 0 0  0.625 0 0  0.65625 0 0  0.6875 0 0  0.71875 0 0  0.75 0 0  0.78125 0 0  0.8125 0 0  0.84375 0 0  0.875 0 0  0.90625 0 0  0.9375 0 0  0.96875 0 0  1 0 0  0 0.03125 0  0.03125 0.03125 0  0.0625 0.03125 0  0.09375 0.03125 0  0.125 0.03125 0  0.15625 0.03125 0  0.1875 0.03125 0  0.21875 0.03125 0  0.25 0.03125 0  0.28125 0.03125 0  0.3125 0.03125 0  0.34375 0.03125 0  0.375 0.03125 0  0.40625 0.03125 0  0.4375 0.03125 0  0.46875 0.03125 0  0.5 0.03125 0  0.53125 0.03125 0  0.5625 0.03125 0  0.59375 0.03125 0  0.625 0.03125 0  0.65625 0.03125 0  0.6875 0.03125 0  0.71875 0.03125 0  0.75 0.03125 0  0.78125 0.03125 0  0.8125 0.03125 0  0.84375 0.03125 0  0.875 0.03125 0  0.90625 0.03125 0  0.9375 0.03125 0  0.96875 0.03125 0  1 0.03125 0  0 0.0625 0  0.03125 0.0625 0  0.0625 0.0625 0  0.09375 0.0625 0  0.125 0.0625 0  0.15625 0.0625 0  0.1875 0.0625 0  0.21875 0.0625 0  0.25 0.0625 0  0.28125 0.0625 0  0.3125 0.0625 0  0.34375 0.0625 0  0.375 0.0625 0  0.40625 0.0625 0  0.4375 0.0625 0  0.46875 0.0625 0  0.5 0.0625 0  0.53125 0.0625 0  0.5625 0.0625 0  0.59375 0.0625 0  0.625 0.0625 0  0.65625 0.0625 0  0.6875 0.0625 0  0.71875 0.0625 0  0.75 0.0625 0  0.78125 0.0625 0  0.8125 0.0625 0  0.84375 0.0625 0  0.875 0.0625 0  0.90625 0.0625 0  0.9375 0.0625 0  0.96875 0.0625 0  1 0.0625 0  0 0.09375 0  0.03125 0.09375 0  0.0625 0.09375 0  0.09375 0.09375 0  0.125 0.09375 0  0.15625 0.09375 0  0.1875 0.09375 0  0.21875 0.09375 0  0.25 0.09375 0  0.28125 0.09375 0  0.3125 0.09375 0  0.34375 0.09375 0  0.375 0.09375 0  0.40625 0.09375 0  0.4375 0.09375 0  0.46875 0.09375 0  0.5 0.09375 0  0.53125 0.09375 0  0.5625 0.09375 0  0.59375 0.09375 0  0.625 0.09375 0  0.65625 0.09375 0  0.6875 0.09375 0  0.71875 0.09375 0  0.75 0.09375 0  0.78125 0.09375 0  0.8125 0.09375 0  0.84375 0.09375 0  0.875 0.09375 0  0.90625 0.09375 0  0.9375 0.09375 0  0.96875 0.09375 0  1 0.09375 0  0 0.125 0  0.03125 0.125 0  0.0625 0.125 0  0.09375 0.125 0  0.125 0.125 0  0.15625 0.125 0  0.1875 0.125 0  0.21875 0.125 0  0.25 0.125 0  0.28125 0.125 0  0.3125 0.125 0  0.34375 0.125 0  0.375 0.125 0  0.40625 0.125 0  0.4375 0.125 0  0.46875 0.125 0  0.5 0.125 0  0.53125 0.125 0  0.5625 0.125 0  0.59375 0.125 0  0.625 0.125 0  0.65625 0.125 0  0.6875 0.125 0  0.71875 0.125 0  0.75 0.125 0  0.78125 0.125 0  0.8125 0.125 0  0.84375 0.125 0  0.875 0.125 0  0.90625 0.125 0  0.9375 0.125 0  0.96875 0.125 0  1 0.125 0  0 0.15625 0  0.03125 0.15625 0  0.0625 0.15625 0  0.09375 0.15625 0  0.125 0.15625 0  0.15625 0.15625 0  0.1875 0.15625 0  0.21875 0.15625 0  0.25 0.15625 0  0.28125 0.15625 0  0.3125 0.15625 0  0.34375 0.15625 0  0.375 0.15625 0  0.40625 0.15625 0  0.4375 0.15625 0  0.46875 0.15625 0  0.5 0.15625 0  0.53125 0.15625 0  0.5625 0.15625 0  0.59375 0.15625 0  0.625 0.15625 0  0.65625 0.15625 0  0.6875 0.15625 0  0.71875 0.15625 0  0.75 0.15625 0  0.78125 0.15625 0  0.8125 0.15625 0  0.84375 0.15625 0  0.875 0.15625 0  0.90625 0.15625 0  0.9375 0.15625 0  0.96875 0.15625 0  1 0.15625 0  0 0.1875 0  0.03125 0.1875 0  0.0625 0.1875 0  0.09375 0.1875 0  0.125 0.1875 0  0.15625 0.1875 0  0.1875 0.1875 0  0.21875 0.1875 0  0.25 0.1875 0  0.28125 0.1875 0  0.3125 0.1875 0  0.34375 0.1875 0  0.375 0.1875 0  0.40625 0.1875 0  0.4375 0.1875 0  0.46875 0.1875 0  0.5 0.1875 0  0.53125 0.1875 0  0.5625 0.1875 0  0.59375 0.1875 0  0.625 0.1875 0  0.65625 0.1875 0  0.6875 0.1875 0  0.71875 0.1875 0  0.75 0.1875 0  0.78125 0.1875 0  0.8125 0.1875 0  0.84375 0.1875 0  0.875 0.1875 0  0.90625 0.1875 0  0.9375 0.1875 0  0.96875 0.1875 0  1 0.1875 0  0 0.21875 0  0.03125 0.21875 0  0.0625 0.21875 0  0.09375 0.21875 0  0.125 0.21875 0  0.15625 0.21875 0  0.1875 0.21875 0  0.21875 0.21875 0  0.25 0.21875 0  0.28125 0.21875 0  0.3125 0.21875 0  0.34375 0.21875 0  0.375 0.21875 0  0.40625 0.21875 0  0.4375 0.21875 0  0.46875 0.21875 0  0.5 0.21875 0  0.53125 0.21875 0  0.5625 0.21875 0  0.59375 0.21875 0  0.625 0.21875 0  0.65625 0.21875 0  0.6875 0.21875 0  0.71875 0.21875 0  0.75 0.21875 0  0.78125 0.21875 0  0.8125 0.21875 0  0.84375 0.21875 0  0.875 0.21875 0  0.90625 0.21875 0  0.9375 0.21875 0  0.96875 0.21875 0  1 0.21875 0  0 0.25 0  0.03125 0.25 0  0.0625 0.25 0  0.09375 0.25 0  0.125 0.25 0  0.15625 0.25 0  0.1875 0.25 0  0.21875 0.25 0  0.25 0.25 0  0.28125 0.25 0  0.3125 0.25 0  0.34375 0.25 0  0.375 0.25 0  0.40625 0.25 0  0.4375 0.25 0  0.46875 0.25 0  0.5 0.25 0  0.53125 0.25 0  0.5625 0.25 0  0.59375 0.25 0  0.625 0.25 0  0.65625 0.25 0  0.6875 0.25 0  0.71875 0.25 0  0.75 0.25 0  0.78125 0.25 0  0.8125 0.25 0  0.84375 0.25 0  0.875 0.25 0  0.90625 0.25 0  0.9375 0.25 0  0.96875 0.25 0  1 0.25 0  0 0.28125 0  0.03125 0.28125 0  0.0625 0.28125 0  0.09375 0.28125 0  0.125 0.28125 0  0.15625 0.28125 0  0.1875 0.28125 0  0.21875 0.28125 0  0.25 0.28125 0  0.28125 0.28125 0  0.3125 0.28125 0  0.34375 0.28125 0  0.375 0.28125 0  0.40625 0.28125 0  0.4375 0.28125 0  0.46875 0.28125 0  0.5 0.28125 0  0.53125 0.28125 0  0.5625 0.28125 0  0.59375 0.28125 0  0.625 0.28125 0  0.65625 0.28125 0  0.6875 0.28125 0  0.71875 0.28125 0  0.75 0.28125 0  0.78125 0.28125 0  0.8125 0.28125 0  0.84375 0.28125 0  0.875 0.28125 0  0.90625 0.28125 0  0.9375 0.28125 0  0.96875 0.28125 0  1 0.28125 0  0 0.3125 0  0.03125 0.3125 0  0.0625 0.3125 0  0.09375 0.3125 0  0.125 0.3125 0  0.15625 0.3125 0  0.1875 0.3125 0  0.21875 0.3125 0  0.25 0.3125 0  0.28125 0.3125 0  0.3125 0.3125 0  0.34375 0.3125 0  0.375 0.3125 0  0.40625 0.3125 0  0.4375 0.3125 0  0.46875 0.3125 0  0.5 0.3125 0  0.53125 0.3125 0  0.5625 0.3125 0  0.59375 0.3125 0  0.625 0.3125 0  0.65625 0.3125 0  0.6875 0.3125 0  0.71875 0.3125 0  0.75 0.3125 0  0.78125 0.3125 0  0.8125 0.3125 0  0.84375 0.3125 0  0.875 0.3125 0  0.90625 0.3125 0  0.9375 0.3125 0  0.96875 0.3125 0  1 0.3125 0  0 0.34375 0  0.03125 0.34375 0  0.0625 0.34375 0  0.09375 0.34375 0  0.125 0.34375 0  0.15625 0.34375 0  0.1875 0.34375 0  0.21875 0.34375 0  0.25 0.34375 0  0.28125 0.34375 0  0.3125 0.34375 0  0.34375 0.34375 0  0.375 0.34375 0  0.40625 0.34375 0  0.4375 0.34375 0  0.46875 0.34375 0  0.5 0.34375 0  0.53125 0.34375 0  0.5625 0.34375 0  0.59375 0.34375 0  0.625 0.34375 0  0.65625 0.34375 0  0.6875 0.34375 0  0.71875 0.34375 0  0.75 0.34375 0  0.78125 0.34375 0  0.8125 0.34375 0  0.84375 0.34375 0  0.875 0.34375 0  0.90625 0.34375 0  0.9375 0.34375 0  0.96875 0.34375 0  1 0.34375 0  0 0.375 0  0.03125 0.375 0  0.0625 0.375 0  0.09375 0.375 0  0.125 0.375 0  0.15625 0.375 0  0.1875 0.375 0  0.21875 0.375 0  0.25 0.375 0  0.28125 0.375 0  0.3125 0.375 0  0.34375 0.375 0  0.375 0.375 0  0.40625 0.375 0  0.4375 0.375 0  0.46875 0.375 0  0.5 0.375 0  0.53125 0.375 0  0.5625 0.375 0  0.59375 0.375 0  0.625 0.375 0  0.65625 0.375 0  0.6875 0.375 0  0.71875 0.375 0  0.75 0.375 0  0.78125 0.375 0  0.8125 0.375 0  0.84375 0.375 0  0.875 0.375 0  0.90625 0.375 0  0.9375 0.375 0  0.96875 0.375 0  1 0.375 0  0 0.40625 0  0.03125 0.40625 0  0.0625 0.40625 0  0.09375 0.40625 0  0.125 0.40625 0  0.15625 0.40625 0  0.1875 0.40625 0  0.21875 0.40625 0  0.25 0.40625 0  0.28125 0.40625 0  0.3125 0.40625 0  0.34375 0.40625 0  0.375 0.40625 0  0.40625 0.40625 0  0.4375 0.40625 0  0.46875 0.40625 0  0.5 0.40625 0  0.53125 0.40625 0  0.5625 0.40625 0  0.59375 0.40625 0  0.625 0.40625 0  0.65625 0.40625 0  0.6875 0.40625 0  0.71875 0.40625 0  0.75 0.40625 0  0.78125 0.40625 0  0.8125 0.40625 0  0.84375 0.40625 0  0.875 0.40625 0  0.90625 0.40625 0  0.9375 0.40625 0  0.96875 0.40625 0  1 0.40625 0  0 0.4375 0  0.03125 0.4375 0  0.0625 0.4375 0  0.09375 0.4375 0  0.125 0.4375 0  0.15625 0.4375 0  0.1875 0.4375 0  0.21875 0.4375 0  0.25 0.4375 0  0.28125 0.4375 0  0.3125 0.4375 0  0.34375 0.4375 0  0.375 0.4375 0  0.40625 0.4375 0  0.4375 0.4375 0  0.46875 0.4375 0  0.5 0.4375 0  0.53125 0.4375 0  0.5625 0.4375 0  0.59375 0.4375 0  0.625 0.4375 0  0.65625 0.4375 0  0.6875 0.4375 0  0.71875 0.4375 0  0.75 0.4375 0  0.78125 0.4375 0  0.8125 0.4375 0  0.84375 0.4375 0  0.875 0.4375 0  0.90625 0.4375 0  0.9375 0.4375 0  0.96875 0.4375 0  1 0.4375 0  0 0.46875 0  0.03125 0.46875 0  0.0625 0.46875 0  0.09375 0.46875 0  0.125 0.46875 0  0.15625 0.46875 0  0.1875 0.46875 0  0.21875 0.46875 0  0.25 0.46875 0  0.28125 0.46875 0  0.3125 0.46875 0  0.34375 0.46875 0  0.375 0.46875 0  0.40625 0.46875 0  0.4375 0.46875 0  0.46875 0.46875 0  0.5 0.46875 0  0.53125 0.46875 0  0.5625 0.46875 0  0.59375 0.46875 0  0.625 0.46875 0  0.65625 0.46875 0  0.6875 0.46875 0  0.71875 0.46875 0  0.75 0.46875 0  0.78125 0.46875 0  0.8125 0.46875 0  0.84375 0.46875 0  0.875 0.46875 0  0.90625 0.46875 0  0.9375 0.46875 0  0.96875 0.46875 0  1 0.46875 0  0 0.5 0  0.03125 0.5 0  0.0625 0.5 0  0.09375 0.5 0  0.125 0.5 0  0.15625 0.5 0  0.1875 0.5 0  0.21875 0.5 0  0.25 0.5 0  0.28125 0.5 0  0.3125 0.5 0  0.34375 0.5 0  0.375 0.5 0  0.40625 0.5 0  0.4375 0.5 0  0.46875 0.5 0  0.5 0.5 0  0.53125 0.5 0  0.5625 0.5 0  0.59375 0.5 0  0.625 0.5 0  0.65625 0.5 0  0.6875 0.5 0  0.71875 0.5 0  0.75 0.5 0  0.78125 0.5 0  0.8125 0.5 0  0.84375 0.5 0  0.875 0.5 0  0.90625 0.5 0  0.9375 0.5 0  0.96875 0.5 0  1 0.5 0  0 0.53125 0  0.03125 0.53125 0  0.0625 0.53125 0  0.09375 0.53125 0  0.125 0.53125 0  0.15625 0.53125 0  0.1875 0.53125 0  0.21875 0.53125 0  0.25 0.53125 0  0.28125 0.53125 0  0.3125 0.53125 0  0.34375 0.53125 0  0.375 0.53125 0  0.40625 0.53125 0  0.4375 0.53125 0  0.46875 0.53125 0  0.5 0.53125 0  0.53125 0.53125 0  0.5625 0.53125 0  0.59375 0.53125 0  0.625 0.53125 0  0.65625 0.53125 0  0.6875 0.53125 0  0.71875 0.53125 0  0.75 0.53125 0  0.78125 0.531
[...]
<CellData  Scalars="f_36036"> 
<DataArray  type="Float64"  Name="f_36036"  format="ascii">1.5943662527429047e-41   1.5943662527429047e-41   2.3596620540594952e-41   2.3596620540594952e-41   1.1479437019748895e-40   1.1479437019748895e-40   7.6529580131659428e-41   7.6529580131659428e-41   2.1683381037303485e-40   2.1683381037303485e-40   1.5305916026331884e-40   1.5305916026331884e-40   1.6581409028526210e-40   1.6581409028526210e-40   8.4182538144825325e-41   8.4182538144825325e-41   2.2958874039497807e-40   2.2958874039497807e-40   8.4182538144825325e-41   8.4182538144825325e-41   3.3162818057052376e-41   3.3162818057052376e-41   6.8876622118493470e-41   6.8876622118493470e-41   3.3800564558149571e-41   3.3800564558149571e-41   5.3730142717435879e-41   5.3730142717435879e-41   3.2206198305406663e-41   3.2206198305406663e-41   2.1093776923447357e-40   2.1093776923447357e-40   1.1009098975189752e-40   1.1009098975189752e-40   1.2149070845900921e-40   1.2149070845900921e-40   8.1631552140436567e-41   8.1631552140436567e-41   1.7346704829842800e-40   1.7346704829842800e-40   8.4182538144825325e-41   8.4182538144825325e-41   6.3774650109716188e-41   6.3774650109716188e-41   8.1631552140436567e-41   8.1631552140436567e-41   8.4182538144825325e-41   8.4182538144825325e-41   1.2754930021943219e-40   1.2754930021943219e-40   1.4540620225015277e-40   1.4540620225015277e-40   1.4795718825454150e-40   1.4795718825454150e-40   3.3162818057052376e-41   3.3162818057052376e-41   5.1019720087772949e-41   5.1019720087772949e-41   1.9642592233792568e-40   1.9642592233792568e-40   1.2754930021943237e-41   1.2754930021943237e-41   8.2907045142630941e-42   8.2907045142630941e-42   5.6121692096550230e-41   5.6121692096550230e-41   8.2907045142630941e-42   8.2907045142630941e-42   1.1479437019748895e-40   1.1479437019748895e-40   5.1019720087772949e-41   5.1019720087772949e-41   8.4182538144825325e-41   8.4182538144825325e-41   2.5509860043886474e-41   2.5509860043886474e-41   1.1479437019748895e-40   1.1479437019748895e-40   1.2754930021943219e-40   1.2754930021943219e-40   3.3162818057052376e-41   3.3162818057052376e-41   8.4182538144825325e-41   8.4182538144825325e-41   1.7410479479952502e-40   1.7410479479952502e-40   1.8303324581488537e-40   1.8303324581488537e-40   1.1734535620187771e-40   1.1734535620187771e-40   2.3931437453670985e-40   2.3931437453670985e-40   1.4018465277241988e-40   1.4018465277241988e-40   1.3294227520930105e-40   1.3294227520930105e-40   1.0702183471536744e-40   1.0702183471536744e-40   1.1798310270297489e-40   1.1798310270297489e-40   1.7410479479952504e-40   1.7410479479952504e-40   5.9948171103133143e-41   5.9948171103133143e-41   2.5509860043886455e-40   2.5509860043886455e-40   9.6937468166768565e-41   9.6937468166768565e-41   1.4795718825454150e-40   1.4795718825454150e-40   7.1427608122882085e-41   7.1427608122882085e-41   1.0714141218432305e-40   1.0714141218432305e-40   1.1479437019748895e-40   1.1479437019748895e-40   8.4182538144825325e-41   8.4182538144825325e-41   1.5305916026331865e-40   1.5305916026331865e-40   7.6529580131659418e-41   7.6529580131659418e-41   3.1887325054858093e-42   3.1887325054858093e-42   9.9488454171157098e-41   9.9488454171157098e-41   3.1887325054858073e-40   3.1887325054858073e-40   3.3162818057052376e-41   3.3162818057052376e-41   3.0611832052663761e-41   3.0611832052663761e-41   7.1427608122882085e-41   7.1427608122882085e-41   1.2754930021943237e-41   1.2754930021943237e-41   4.5917748078995616e-41   4.5917748078995616e-41   5.3570706092161523e-41   5.3570706092161523e-41   9.4386482162379806e-41   9.4386482162379806e-41   1.3010028622382093e-40   1.3010028622382093e-40   1.1176507431727749e-40   1.1176507431727749e-40   1.4110141336774683e-40   1.4110141336774683e-40   9.6937468166768503e-41   9.6937468166768503e-41   1.4891380800618721e-40   1.4891380800618721e-40   1.5752338577099895e-40   1.5752338577099895e-40   8.1312678889888056e-42   8.1312678889888056e-42   9.9169580920608651e-41   9.9169580920608651e-41   1.1849741816433943e-40   1.1849741816433943e-40   2.6825212202399357e-40   2.6825212202399357e-40   1.5756324492731753e-40   1.5756324492731753e-40   1.9451268283463410e-40   1.9451268283463410e-40   1.9690423221374861e-40   1.9690423221374861e-40   1.2930310309744948e-40   1.2930310309744948e-40   4.7830987582287134e-41   4.7830987582287134e-41   1.1033014468980898e-40   1.1033014468980898e-40   1.3010028622382089e-40   1.3010028622382089e-40   3.8264790065829709e-41   3.8264790065829709e-41   2.0407888035109142e-41   2.0407888035109142e-41   3.3162818057052376e-41   3.3162818057052376e-41   6.3774650109716188e-41   6.3774650109716188e-41   0.0000000000000000e+00   0.0000000000000000e+00   1.5305916026331865e-40   1.5305916026331865e-40   7.1427608122882085e-41   7.1427608122882085e-41   1.2754930021943237e-41   1.2754930021943237e-41   2.0407888035109179e-40   2.0407888035109179e-40   0.0000000000000000e+00   0.0000000000000000e+00   3.0611832052663761e-41   3.0611832052663761e-41   2.3596620540594952e-41   2.3596620540594952e-41   5.1019720087772949e-41   5.1019720087772949e-41   9.5024228663477047e-41   9.5024228663477047e-41   2.0726761285657753e-40   2.0726761285657753e-40   8.9483805935195465e-41   8.9483805935195465e-41   2.1444226099392043e-40   2.1444226099392043e-40   1.8422154691263281e-40   1.8422154691263281e-40   8.2269298641533807e-41   8.2269298641533807e-41   3.2780170156394112e-40   3.2780170156394112e-40   7.7438368895722825e-40   7.7438368895722825e-40   6.3328227558948112e-40   6.3328227558948112e-40   5.3730142717435857e-40   5.3730142717435857e-40   3.4539266828609871e-40   3.4539266828609871e-40   7.7395520302680347e-40   7.7395520302680347e-40   1.0224670778840235e-39   1.0224670778840235e-39   3.4215099783862724e-40   3.4215099783862724e-40   5.9565523202474811e-40   5.9565523202474811e-40   1.3265127222820967e-40   1.3265127222820967e-40   4.4642255076801283e-41   4.4642255076801283e-41   7.0949298247059211e-41   7.0949298247059211e-41   2.9734930613655134e-41   2.9734930613655134e-41   1.5465352651606170e-40   1.5465352651606170e-40   7.1427608122882085e-41   7.1427608122882085e-41   2.3979268441253257e-40   2.3979268441253257e-40   9.7575214667865621e-41   9.7575214667865621e-41   7.1427608122882085e-41   7.1427608122882085e-41   8.4820284645922514e-41   8.4820284645922514e-41   1.2754930021943237e-41   1.2754930021943237e-41   3.5968902661879861e-40   3.5968902661879861e-40   2.0407888035109142e-41   2.0407888035109142e-41   3.5968902661879865e-40   3.5968902661879865e-40   8.2907045142630941e-42   8.2907045142630941e-42   1.2754930021943219e-40   1.2754930021943219e-40   2.4617014942350416e-40   2.4617014942350416e-40   1.4668169525234700e-40   1.4668169525234700e-40   1.3089746935019230e-40   1.3089746935019230e-40   9.9010144295334214e-41   9.9010144295334214e-41   4.1915888784610956e-40   4.1915888784610956e-40   3.8009691465390778e-40   3.8009691465390778e-40   7.8060171734292497e-40   7.8060171734292497e-40   3.6032677311989620e-40   3.6032677311989620e-40   3.5155775872981039e-40   3.5155775872981039e-40   5.0015269348544897e-40   5.0015269348544897e-40   4.6766748108581196e-40   4.6766748108581196e-40   6.4565064186005701e-40   6.4565064186005701e-40   8.7323937902182820e-41   8.7323937902182820e-41   6.5911100888391655e-40   6.5911100888391655e-40   7.0040509482995806e-40   7.0040509482995806e-40   2.3548789553012682e-40   2.3548789553012682e-40   9.2473242659088472e-41   9.2473242659088472e-41   2.8634817899262560e-40   2.8634817899262560e-40   4.2665240923400114e-40   4.2665240923400114e-40   2.7168000946739064e-40   2.7168000946739064e-40   2.0766620441976315e-41   2.0766620441976315e-41   1.6708958328745631e-40   1.6708958328745631e-40   1.7920676680830219e-40   1.7920676680830219e-40   1.9132395032914837e-40   1.9132395032914837e-40   6.6963382615201993e-41   6.6963382615201993e-41   3.1887325054858093e-42   3.1887325054858093e-42   2.0407888035109179e-40   2.0407888035109179e-40   4.5917748078995616e-41   4.5917748078995616e-41   2.4999662843008736e-40   2.4999662843008736e-40   4.5917748078995616e-41   4.5917748078995616e-41   1.0841690518651732e-40   1.0841690518651732e-40   1.4413070924795843e-40   1.4413070924795843e-40   1.6326310428087313e-40   1.6326310428087313e-40   2.5127212143228160e-40   2.5127212143228160e-40   1.3073803272491813e-40   1.3073803272491813e-40   7.4377185690456413e-40   7.4377185690456413e-40   7.4552565978258093e-40   7.4552565978258093e-40   5.1338593338321508e-40   5.1338593338321508e-40   1.1194045460507921e-39   1.1194045460507921e-39   1.4875437138091292e-40   1.4875437138091292e-40   3.3561409620238119e-40   3.3561409620238119e-40   2.7156043199843507e-40   2.7156043199843507e-40   4.3662716310272404e-40   4.3662716310272404e-40   1.4530737178346058e-40   1.4530737178346058e-40   8.7403407095092941e-40   8.7403407095092941e-40   1.0217496130702894e-39   1.0217496130702894e-39   7.8219608359566816e-40   7.8219608359566816e-40   6.1367157068074371e-40   6.1367157068074371e-40   9.3110989160185468e-41   9.3110989160185468e-41   4.3876959275484697e-40   4.3876959275484697e-40   1.4795718825454146e-40   1.4795718825454146e-40   3.1696001104528939e-40   3.1696001104528939e-40   9.5279327263915866e-40   9.5279327263915866e-40   7.1472449673740439e-41   7.1472449673740439e-41   8.9922256654699806e-41   8.9922256654699806e-41   1.0012620067225438e-40   1.0012620067225438e-40   1.1798310270297475e-40   1.1798310270297475e-40   5.4208452593258753e-41   5.4208452593258753e-41   1.7856902030720521e-41   1.7856902030720521e-41   2.5509860043886474e-41   2.5509860043886474e-41   3.2652620856174627e-40   3.2652620856174627e-40   3.4757184309795257e-40   3.4757184309795257e-40   3.3162818057052376e-41   3.3162818057052376e-41   1.0012620067225432e-40   1.0012620067225432e-40   1.4795718825454152e-40   1.4795718825454152e-40   2.6550184023801191e-40   2.6550184023801191e-40   3.6403367465752334e-40   3.6403367465752334e-40   3.6670423813086763e-40   3.6670423813086763e-40   5.5372339957761073e-40   5.5372339957761073e-40   3.5602198423749053e-40   3.5602198423749053e-40   1.1431606032166625e-40   1.1431606032166625e-40   1.3450073708139133e-39   1.3450073708139133e-39   1.2444028602658360e-39   1.2444028602658360e-39   9.1584383473184237e-40   9.1584383473184237e-40   7.0444083440721312e-40   7.0444083440721312e-40   6.8339224157424874e-40   6.8339224157424874e-40   3.4048936925959678e-40   3.4048936925959678e-40   1.1084432780631847e-39   1.1084432780631847e-39   6.0239142944258779e-40   6.0239142944258779e-40   6.4029748710154976e-40   6.4029748710154976e-40   4.3000057836476129e-40   4.3000057836476129e-40   3.0803156002992896e-40   3.0803156002992896e-40   1.6453859728306759e-40   1.6453859728306759e-40   2.1747155687413203e-40   2.1747155687413203e-40   3.4565860359466165e-40   3.4565860359466165e-40   6.1498692283925598e-40   6.1498692283925598e-40   1.1176507431727749e-40   1.1176507431727749e-40   9.5661975164574287e-41   9.5661975164574287e-41   7.2065354623979285e-41   7.2065354623979285e-41   2.3596620540594952e-41   2.3596620540594952e-41   1.1479437019748904e-41   1.1479437019748904e-41   3.3162818057052376e-41   3.3162818057052376e-41   6.3774650109716186e-42   6.3774650109716186e-42   2.2767550089168674e-40   2.2767550089168674e-40   5.7397185098744568e-41   5.7397185098744568e-41   2.2703775439058931e-40   2.2703775439058931e-40   1.0793859531069464e-40   1.0793859531069464e-40   1.1814253932824906e-40   1.1814253932824906e-40   5.4208452593258743e-41   5.4208452593258743e-41   5.1545860951178103e-40   5.1545860951178103e-40   6.6070537513665950e-40   6.6070537513665950e-40   3.2285916618043793e-40   3.2285916618043793e-40   7.0821748946839806e-40   7.0821748946839806e-40   5.9904326031182723e-40   5.9904326031182723e-40   2.9722972866759601e-40   2.9722972866759601e-40   1.6295419581940445e-40   1.6295419581940445e-40   6.2998393040411870e-40   6.2998393040411870e-40   1.2378275396966939e-39   1.2378275396966939e-39   8.7486177124385738e-40   8.7486177124385738e-40   1.0444394378046365e-39   1.0444394378046365e-39   7.7920664687177533e-40   7.7920664687177533e-40   6.2706424720378374e-40   6.2706424720378374e-40   7.6210706881110775e-40   7.6210706881110775e-40   5.3969297655347230e-40   5.3969297655347230e-40   2.6546198108169326e-40   2.6546198108169326e-40   7.1124678534860896e-40   7.1124678534860896e-40   1.1697865196374682e-39   1.1697865196374682e-39   2.0344113384999449e-40   2.0344113384999449e-40   2.3022648689607513e-40   2.3022648689607513e-40   6.3774650109716188e-41   6.3774650109716188e-41   1.9451268283463419e-40   1.9451268283463419e-40   1.1479437019748904e-41   1.1479437019748904e-41   2.2002254287852083e-40   2.2002254287852083e-40   6.3774650109716186e-42   6.3774650109716186e-42   3.1887325054858093e-42   3.1887325054858093e-42   1.2276620146120355e-41   1.2276620146120355e-41   2.1045634536206331e-41   2.1045634536206331e-41   1.5752338577099897e-40   1.5752338577099897e-40   3.7786480190006829e-41   3.7786480190006829e-41   6.2212171182028048e-40   6.2212171182028048e-40   9.3270425785459865e-41   9.3270425785459865e-41   3.1237620806865353e-40   3.1237620806865353e-40   2.9834578504451571e-40   2.9834578504451571e-40   7.4951157541443891e-40   7.4951157541443891e-40   8.1822876090765855e-40   8.1822876090765855e-40   6.8669354505636846e-40   6.8669354505636846e-40   2.3198826160535635e-39   2.3198826160535635e-39   1.2456484589007914e-39   1.2456484589007914e-39   3.8408532148303556e-40   3.8408532148303556e-40   6.6505052919982954e-40   6.6505052919982954e-40   1.2313645565544401e-39   1.2313645565544401e-39   3.2381279649535966e-39   3.2381279649535966e-39   2.1047627494022256e-39   2.1047627494022256e-39   5.9246649951926254e-40   5.9246649951926254e-40   1.6952099182288907e-40   1.6952099182288907e-40   3.8539818244427795e-40   3.8539818244427795e-40   7.8781622463658701e-40   7.8781622463658701e-40   5.7349354111162255e-40   5.7349354111162255e-40   8.0308228150660034e-40   8.0308228150660034e-40   1.3775324423698680e-40   1.3775324423698680e-40   8.5179017052789586e-41   8.5179017052789586e-41   2.9017465799920827e-40   2.9017465799920827e-40   1.6980000591711912e-40   1.6980000591711912e-40   7.2224791249253580e-41   7.2224791249253580e-41   2.4553240292240731e-40   2.4553240292240731e-40   1.5943662527429047e-41   1.5943662527429047e-41   3.1409015179035199e-41   3.1409015179035199e-41   2.5828733294435044e-41   2.5828733294435044e-41   1.0415197546043023e-40   1.0415197546043023e-40   2.7682184063248660e-40   2.7682184063248660e-40   1.8402972472284970e-40   1.8402972472284970e-40   9.3841408199723420e-40   9.3841408199723420e-40   2.0412870429648986e-40   2.0412870429648986e-40   8.3485002909250288e-40   8.3485002909250288e-40   5.7027491423889784e-40   5.7027491423889784e-40   9.9775440096650858e-40   9.9775440096650858e-40   1.2246327187318244e-39   1.2246327187318244e-39   1.2509920770447511e-39   1.2509920770447511e-39   2.9673248569252165e-39   2.9673248569252165e-39   7.1900188244984128e-40   7.1900188244984128e-40   1.4364293282251003e-39   1.4364293282251003e-39   1.3145420523006872e-39   1.3145420523006872e-39   4.2343309728202687e-39   4.2343309728202687e-39   2.1466871082575536e-39   2.1466871082575536e-39   1.9558514325933096e-39   1.9558514325933096e-39   8.9329351704460986e-40   8.9329351704460986e-40   1.8506606278713247e-40   1.8506606278713247e-40   5.5640392784003480e-40   5.5640392784003480e-40   2.9607381313435697e-40   2.9607381313435697e-40   7.6279463925760356e-40   7.6279463925760356e-40   2.8802226355800555e-40   2.8802226355800555e-40   1.2182951128771708e-39   1.2182951128771708e-39   6.0665635916867425e-40   6.0665635916867425e-40   2.4334014932488558e-40   2.4334014932488558e-40   1.0235831342609447e-40   1.0235831342609447e-40   1.3073803272491806e-41   1.3073803272491806e-41   3.6351550562538191e-41   3.6351550562538191e-41   2.0934028898514336e-40   2.0934028898514336e-40   2.5908451607072199e-42   2.5908451607072199e-42   2.1164464645981087e-40   2.1164464645981087e-40   5.1530415528104651e-41   5.1530415528104651e-41   2.2107195972847053e-40   2.2107195972847053e-40   1.5207264614443410e-40   1.5207264614443410e-40   4.9296309816448642e-40   4.9296309816448642e-40   2.8565313495432033e-40   2.8565313495432033e-40   6.6935979445232941e-40   6.6935979445232941e-40   5.0223658000172953e-40   5.0223658000172953e-40   2.7010806399007722e-40   2.7010806399007722e-40   1.3366338339904253e-39   1.3366338339904253e-39   2.2315092613014299e-39   2.2315092613014299e-39   2.1444275923337464e-39   2.1444275923337464e-39   9.5055212929521625e-40   9.5055212929521625e-40   8.5844750598215892e-40   8.5844750598215892e-40   3.2701984513952306e-39   3.2701984513952306e-39   1.0447532994669277e-39   1.0447532994669277e-39   1.5907334643240564e-39   1.5907334643240564e-39   1.2592374729086677e-39   1.2592374729086677e-39   2.0426430327788766e-39   2.0426430327788766e-39   3.7797049094424390e-39   3.7797049094424390e-39   1.1751724881350152e-39   1.1751724881350152e-39   4.3983333398909922e-40   4.3983333398909922e-40   4.4503993628321220e-40   4.4503993628321220e-40   3.7510704652227715e-40   3.7510704652227715e-40   5.1774552860555856e-40   5.1774552860555856e-40   5.8933506455098490e-40   5.8933506455098490e-40   5.7076443450243512e-41   5.7076443450243512e-41   1.6366169584405895e-40   1.6366169584405895e-40   3.9061973192201150e-42   3.9061973192201150e-42   4.7910705894924261e-41   4.7910705894924261e-41   2.0696866918418809e-41   2.0696866918418809e-41   1.7032315734380060e-41   1.7032315734380060e-41   2.1653299830269330e-40   2.1653299830269330e-40   9.3203163459172335e-41   9.3203163459172335e-41   1.7174563098491945e-40   1.7174563098491945e-40   2.7853578435418515e-40   2.7853578435418515e-40   2.1114391580855862e-40   2.1114391580855862e-40   3.3243532848597492e-40   3.3243532848597492e-40   4.7704434760975674e-40   4.7704434760975674e-40   3.8090406256935961e-40   3.8090406256935961e-40   1.5527632583353930e-39   1.5527632583353930e-39   1.1709349615788970e-39   1.1709349615788970e-39   2.0000950961069253e-39   2.0000950961069253e-39   3.2226451739211016e-39   3.2226451739211016e-39   1.9559610452731847e-39   1.9559610452731847e-39   6.6989104227013766e-40   6.6989104227013766e-40   3.3988483353210366e-39   3.3988483353210366e-39   3.0361808098913592e-39   3.0361808098913592e-39   4.3418116938577489e-39   4.3418116938577489e-39   2.2731178609027975e-39   2.2731178609027975e-39   5.7588758168800640e-40   5.7588758168800640e-40   4.3858026176233377e-39   4.3858026176233377e-39   4.7722620501046019e-40   4.7722620501046019e-40   8.1409586463687569e-40   8.1409586463687569e-40   5.9338326011458983e-40   5.9338326011458983e-40   1.1646147941051333e-39   1.1646147941051333e-39   5.5724097012272471e-40   5.5724097012272471e-40   1.8676007693067187e-40   1.8676007693067187e-40   5.6849121699364188e-41   5.6849121699364188e-41   2.0321443489843252e-40   2.0321443489843252e-40   3.9174575308801068e-40   3.9174575308801068e-40   3.2226633908011368e-41   3.2226633908011368e-41   3.0711479943460165e-41   3.0711479943460165e-41   3.6351550562538191e-41   3.6351550562538191e-41   2.7781831954045074e-41   2.7781831954045074e-41   1.1052944047140172e-40   1.1052944047140172e-40   4.7551973488057107e-41   4.7551973488057107e-41   2.5928381185231470e-40   2.5928381185231470e-40   6.1701973981150386e-41   6.1701973981150386e-41   3.9253297142530270e-40   3.9253297142530270e-40   3.4745226562899749e-40   3.4745226562899749e-40   1.6824549882069484e-40   1.6824549882069484e-40   5.4941861069520432e-40   5.4941861069520432e-40   1.2306115921796098e-39   1.2306115921796098e-39   2.1588516245265291e-39   2.1588516245265291e-39   2.6052442809273031e-39   2.6052442809273031e-39   3.3908682519663685e-39   3.3908682519663685e-39   3.76132921