<?xml version="1.0"?>
<VTKFile type="UnstructuredGrid"  version="0.1"  >
<UnstructuredGrid>
<Piece  NumberOfPoints="1089" NumberOfCells="2048">
<Points>
<DataArray  type="Float64"  NumberOfComponents="3"  format="ascii">0 0 0  0.03125 0 0  0.0625 0 0  0.09375 0 0  0.125 0 0  0.15625 0 0  0.1875 0 0  0.21875 0 0  0.25 0 0  0.28125 0 0  0.3125 0 0  0.34375 0 0  0.375 0 0  0.40625 0 0  0.4375 0 0  0.46875 0 0  0.5 0 0  0.53125 0 0  0.5625 0 0  0.59375 0 0  0.625 0 0  0.65625 0 0  0.6875 0 0  0.71875 0 0  0.75 0 0  0.78125 0 0  0.8125 0 0  0.84375 0 0  0.875 0 0  0.90625 0 0  0.9375 0 0  0.96875 0 0  1 0 0  0 0.03125 0  0.03125 0.03125 0  0.0625 0.03125 0  0.09375 0.03125 0  0.125 0.03125 0  0.15625 0.03125 0  0.1875 0.03125 0  0.21875 0.03125 0  0.25 0.03125 0  0.28125 0.03125 0  0.3125 0.03125 0  0.34375 0.03125 0  0.375 0.03125 0  0.40625 0.03125 0  0.4375 0.03125 0  0.46875 0.03125 0  0.5 0.03125 0  0.53125 0.03125 0  0.5625 0.03125 0  0.59375 0.03125 0  0.625 0.03125 0  0.65625 0.03125 0  0.6875 0.03125 0  0.71875 0.03125 0  0.75 0.03125 0  0.78125 0.03125 0  0.8125 0.03125 0  0.84375 0.03125 0  0.875 0.03125 0  0.90625 0.03125 0  0.9375 0.03125 0  0.96875 0.03125 0  1 0.03125 0  0 0.0625 0  0.03125 0.0625 0  0.0625 0.0625 0  0.09375 0.0625 0  0.125 0.0625 0  0.15625 0.0625 0  0.1875 0.0625 0  0.21875 0.0625 0  0.25 0.0625 0  0.28125 0.0625 0  0.3125 0.0625 0  0.34375 0.0625 0  0.375 0.0625 0  0.40625 0.0625 0  0.4375 0.0625 0  0.46875 0.0625 0  0.5 0.0625 0  0.53125 0.0625 0  0.5625 0.0625 0  0.59375 0.0625 0  0.625 0.0625 0  0.65625 0.0625 0  0.6875 0.0625 0  0.71875 0.0625 0  0.75 0.0625 0  0.78125 0.0625 0  0.8125 0.0625 0  0.84375 0.0625 0  0.875 0.0625 0  0.90625 0.0625 0  0.9375 0.0625 0  0.96875 0.0625 0  1 0.0625 0  0 0.09375 0  0.03125 0.09375 0  0.0625 0.09375 0  0.09375 0.09375 0  0.125 0.09375 0  0.15625 0.09375 0  0.1875 0.09375 0  0.21875 0.09375 0  0.25 0.09375 0  0.28125 0.09375 0  0.3125 0.09375 0  0.34375 0.09375 0  0.375 0.09375 0  0.40625 0.09375 0  0.4375 0.09375 0  0.46875 0.09375 0  0.5 0.09375 0  0.53125 0.09375 0  0.5625 0.09375 0  0.59375 0.09375 0  0.625 0.09375 0  0.65625 0.09375 0  0.6875 0.09375 0  0.71875 0.09375 0  0.75 0.09375 0  0.78125 0.09375 0  0.8125 0.09375 0  0.84375 0.09375 0  0.875 0.09375 0  0.90625 0.09375 0  0.9375 0.09375 0  0.96875 0.09375 0  1 0.09375 0  0 0.125 0  0.03125 0.125 0  0.0625 0.125 0  0.09375 0.125 0  0.125 0.125 0  0.15625 0.125 0  0.1875 0.125 0  0.21875 0.125 0  0.25 0.125 0  0.28125 0.125 0  0.3125 0.125 0  0.34375 0.125 0  0.375 0.125 0  0.40625 0.125 0  0.4375 0.125 0  0.46875 0.125 0  0.5 0.125 0  0.53125 0.125 0  0.5625 0.125 0  0.59375 0.125 0  0.625 0.125 0  0.65625 0.125 0  0.6875 0.125 0  0.71875 0.125 0  0.75 0.125 0  0.78125 0.125 0  0.8125 0.125 0  0.84375 0.125 0  0.875 0.125 0  0.90625 0.125 0  0.9375 0.125 0  0.96875 0.125 0  1 0.125 0  0 0.15625 0  0.03125 0.15625 0  0.0625 0.15625 0  0.09375 0.15625 0  0.125 0.15625 0  0.15625 0.15625 0  0.1875 0.15625 0  0.21875 0.15625 0  0.25 0.15625 0  0.28125 0.15625 0  0.3125 0.15625 0  0.34375 0.15625 0  0.375 0.15625 0  0.40625 0.15625 0  0.4375 0.15625 0  0.46875 0.15625 0  0.5 0.15625 0  0.53125 0.15625 0  0.5625 0.15625 0  0.59375 0.15625 0  0.625 0.15625 0  0.65625 0.15625 0  0.6875 0.15625 0  0.71875 0.15625 0  0.75 0.15625 0  0.78125 0.15625 0  0.8125 0.15625 0  0.84375 0.15625 0  0.875 0.15625 0  0.90625 0.15625 0  0.9375 0.15625 0  0.96875 0.15625 0  1 0.15625 0  0 0.1875 0  0.03125 0.1875 0  0.0625 0.1875 0  0.09375 0.1875 0  0.125 0.1875 0  0.15625 0.1875 0  0.1875 0.1875 0  0.21875 0.1875 0  0.25 0.1875 0  0.28125 0.1875 0  0.3125 0.1875 0  0.34375 0.1875 0  0.375 0.1875 0  0.40625 0.1875 0  0.4375 0.1875 0  0.46875 0.1875 0  0.5 0.1875 0  0.53125 0.1875 0  0.5625 0.1875 0  0.59375 0.1875 0  0.625 0.1875 0  0.65625 0.1875 0  0.6875 0.1875 0  0.71875 0.1875 0  0.75 0.1875 0  0.78125 0.1875 0  0.8125 0.1875 0  0.84375 0.1875 0  0.875 0.1875 0  0.90625 0.1875 0  0.9375 0.1875 0  0.96875 0.1875 0  1 0.1875 0  0 0.21875 0  0.03125 0.21875 0  0.0625 0.21875 0  0.09375 0.21875 0  0.125 0.21875 0  0.15625 0.21875 0  0.1875 0.21875 0  0.21875 0.21875 0  0.25 0.21875 0  0.28125 0.21875 0  0.3125 0.21875 0  0.34375 0.21875 0  0.375 0.21875 0  0.40625 0.21875 0  0.4375 0.21875 0  0.46875 0.21875 0  0.5 0.21875 0  0.53125 0.21875 0  0.5625 0.21875 0  0.59375 0.21875 0  0.625 0.21875 0  0.65625 0.21875 0  0.6875 0.21875 0  0.71875 0.21875 0  0.75 0.21875 0  0.78125 0.21875 0  0.8125 0.21875 0  0.84375 0.21875 0  0.875 0.21875 0  0.90625 0.21875 0  0.9375 0.21875 0  0.96875 0.21875 0  1 0.21875 0  0 0.25 0  0.03125 0.25 0  0.0625 0.25 0  0.09375 0.25 0  0.125 0.25 0  0.15625 0.25 0  0.1875 0.25 0  0.21875 0.25 0  0.25 0.25 0  0.28125 0.25 0  0.3125 0.25 0  0.34375 0.25 0  0.375 0.25 0  0.40625 0.25 0  0.4375 0.25 0  0.46875 0.25 0  0.5 0.25 0  0.53125 0.25 0  0.5625 0.25 0  0.59375 0.25 0  0.625 0.25 0  0.65625 0.25 0  0.6875 0.25 0  0.71875 0.25 0  0.75 0.25 0  0.78125 0.25 0  0.8125 0.25 0  0.84375 0.25 0  0.875 0.25 0  0.90625 0.25 0  0.9375 0.25 0  0.96875 0.25 0  1 0.25 0  0 0.28125 0  0.03125 0.28125 0  0.0625 0.28125 0  0.09375 0.28125 0  0.125 0.28125 0  0.15625 0.28125 0  0.1875 0.28125 0  0.21875 0.28125 0  0.25 0.28125 0  0.28125 0.28125 0  0.3125 0.28125 0  0.34375 0.28125 0  0.375 0.28125 0  0.40625 0.28125 0  0.4375 0.28125 0  0.46875 0.28125 0  0.5 0.28125 0  0.53125 0.28125 0  0.5625 0.28125 0  0.59375 0.28125 0  0.625 0.28125 0  0.65625 0.28125 0  0.6875 0.28125 0  0.71875 0.28125 0  0.75 0.28125 0  0.78125 0.28125 0  0.8125 0.28125 0  0.84375 0.28125 0  0.875 0.28125 0  0.90625 0.28125 0  0.9375 0.28125 0  0.96875 0.28125 0  1 0.28125 0  0 0.3125 0  0.03125 0.3125 0  0.0625 0.3125 0  0.09375 0.3125 0  0.125 0.3125 0  0.15625 0.3125 0  0.1875 0.3125 0  0.21875 0.3125 0  0.25 0.3125 0  0.28125 0.3125 0  0.3125 0.3125 0  0.34375 0.3125 0  0.375 0.3125 0  0.40625 0.3125 0  0.4375 0.3125 0  0.46875 0.3125 0  0.5 0.3125 0  0.53125 0.3125 0  0.5625 0.3125 0  0.59375 0.3125 0  0.625 0.3125 0  0.65625 0.3125 0  0.6875 0.3125 0  0.71875 0.3125 0  0.75 0.3125 0  0.78125 0.3125 0  0.8125 0.3125 0  0.84375 0.3125 0  0.875 0.3125 0  0.90625 0.3125 0  0.9375 0.3125 0  0.96875 0.3125 0  1 0.3125 0  0 0.34375 0  0.03125 0.34375 0  0.0625 0.34375 0  0.09375 0.34375 0  0.125 0.34375 0  0.15625 0.34375 0  0.1875 0.34375 0  0.21875 0.34375 0  0.25 0.34375 0  0.28125 0.34375 0  0.3125 0.34375 0  0.34375 0.34375 0  0.375 0.34375 0  0.40625 0.34375 0  0.4375 0.34375 0  0.46875 0.34375 0  0.5 0.34375 0  0.53125 0.34375 0  0.5625 0.34375 0  0.59375 0.34375 0  0.625 0.34375 0  0.65625 0.34375 0  0.6875 0.34375 0  0.71875 0.34375 0  0.75 0.34375 0  0.78125 0.34375 0  0.8125 0.34375 0  0.84375 0.34375 0  0.875 0.34375 0  0.90625 0.34375 0  0.9375 0.34375 0  0.96875 0.34375 0  1 0.34375 0  0 0.375 0  0.03125 0.375 0  0.0625 0.375 0  0.09375 0.375 0  0.125 0.375 0  0.15625 0.375 0  0.1875 0.375 0  0.21875 0.375 0  0.25 0.375 0  0.28125 0.375 0  0.3125 0.375 0  0.34375 0.375 0  0.375 0.375 0  0.40625 0.375 0  0.4375 0.375 0  0.46875 0.375 0  0.5 0.375 0  0.53125 0.375 0  0.5625 0.375 0  0.59375 0.375 0  0.625 0.375 0  0.65625 0.375 0  0.6875 0.375 0  0.71875 0.375 0  0.75 0.375 0  0.78125 0.375 0  0.8125 0.375 0  0.84375 0.375 0  0.875 0.375 0  0.90625 0.375 0  0.9375 0.375 0  0.96875 0.375 0  1 0.375 0  0 0.40625 0  0.03125 0.40625 0  0.0625 0.40625 0  0.09375 0.40625 0  0.125 0.40625 0  0.15625 0.40625 0  0.1875 0.40625 0  0.21875 0.40625 0  0.25 0.40625 0  0.28125 0.40625 0  0.3125 0.40625 0  0.34375 0.40625 0  0.375 0.40625 0  0.40625 0.40625 0  0.4375 0.40625 0  0.46875 0.40625 0  0.5 0.40625 0  0.53125 0.40625 0  0.5625 0.40625 0  0.59375 0.40625 0  0.625 0.40625 0  0.65625 0.40625 0  0.6875 0.40625 0  0.71875 0.40625 0  0.75 0.40625 0  0.78125 0.40625 0  0.8125 0.40625 0  0.84375 0.40625 0  0.875 0.40625 0  0.90625 0.40625 0  0.9375 0.40625 0  0.96875 0.40625 0  1 0.40625 0  0 0.4375 0  0.03125 0.4375 0  0.0625 0.4375 0  0.09375 0.4375 0  0.125 0.4375 0  0.15625 0.4375 0  0.1875 0.4375 0  0.21875 0.4375 0  0.25 0.4375 0  0.28125 0.4375 0  0.3125 0.4375 0  0.34375 0.4375 0  0.375 0.4375 0  0.40625 0.4375 0  0.4375 0.4375 0  0.46875 0.4375 0  0.5 0.4375 0  0.53125 0.4375 0  0.5625 0.4375 0  0.59375 0.4375 0  0.625 0.4375 0  0.65625 0.4375 0  0.6875 0.4375 0  0.71875 0.4375 0  0.75 0.4375 0  0.78125 0.4375 0  0.8125 0.4375 0  0.84375 0.4375 0  0.875 0.4375 0  0.90625 0.4375 0  0.9375 0.4375 0  0.96875 0.4375 0  1 0.4375 0  0 0.46875 0  0.03125 0.46875 0  0.0625 0.46875 0  0.09375 0.46875 0  0.125 0.46875 0  0.15625 0.46875 0  0.1875 0.46875 0  0.21875 0.46875 0  0.25 0.46875 0  0.28125 0.46875 0  0.3125 0.46875 0  0.34375 0.46875 0  0.375 0.46875 0  0.40625 0.46875 0  0.4375 0.46875 0  0.46875 0.46875 0  0.5 0.46875 0  0.53125 0.46875 0  0.5625 0.46875 0  0.59375 0.46875 0  0.625 0.46875 0  0.65625 0.46875 0  0.6875 0.46875 0  0.71875 0.46875 0  0.75 0.46875 0  0.78125 0.46875 0  0.8125 0.46875 0  0.84375 0.46875 0  0.875 0.46875 0  0.90625 0.46875 0  0.9375 0.46875 0  0.96875 0.46875 0  1 0.46875 0  0 0.5 0  0.03125 0.5 0  0.0625 0.5 0  0.09375 0.5 0  0.125 0.5 0  0.15625 0.5 0  0.1875 0.5 0  0.21875 0.5 0  0.25 0.5 0  0.28125 0.5 0  0.3125 0.5 0  0.34375 0.5 0  0.375 0.5 0  0.40625 0.5 0  0.4375 0.5 0  0.46875 0.5 0  0.5 0.5 0  0.53125 0.5 0  0.5625 0.5 0  0.59375 0.5 0  0.625 0.5 0  0.65625 0.5 0  0.6875 0.5 0  0.71875 0.5 0  0.75 0.5 0  0.78125 0.5 0  0.8125 0.5 0  0.84375 0.5 0  0.875 0.5 0  0.90625 0.5 0  0.9375 0.5 0  0.96875 0.5 0  1 0.5 0  0 0.53125 0  0.03125 0.53125 0  0.0625 0.53125 0  0.09375 0.53125 0  0.125 0.53125 0  0.15625 0.53125 0  0.1875 0.53125 0  0.21875 0.53125 0  0.25 0.53125 0  0.28125 0.53125 0  0.3125 0.53125 0  0.34375 0.53125 0  0.375 0.53125 0  0.40625 0.53125 0  0.4375 0.53125 0  0.46875 0.53125 0  0.5 0.53125 0  0.53125 0.53125 0  0.5625 0.53125 0  0.59375 0.53125 0  0.625 0.53125 0  0.65625 0.53125 0  0.6875 0.53125 0  0.71875 0.53125 0  0.75 0.53125 0  0.78125 0.531
[...]
<CellData  Scalars="f_41946"> 
<DataArray  type="Float64"  Name="f_41946"  format="ascii">6.6807191765639707e-11   7.2838892157538083e-11   3.4477129666659984e-12   8.6264417083150856e-12   5.1667524035799157e-13   9.0109778725004050e-13   1.3876382545512667e-13   2.5590544041877253e-13   6.5107639339042991e-14   1.1183462887908008e-13   4.3534100093212131e-14   6.7693517725489971e-14   3.2705295309980547e-14   5.1226346965007135e-14   2.5022386271717270e-14   4.1814116617358901e-14   1.9940212214315832e-14   3.4634703860340884e-14   1.8313985504318867e-14   2.9647408002186790e-14   2.0955288785451833e-14   2.7914845340978042e-14   2.8267142237447217e-14   3.0404243242677294e-14   4.0201798532818901e-14   3.7640783753543257e-14   5.6323701378189829e-14   4.9663002419064170e-14   7.5907347470240244e-14   6.6086244011279417e-14   9.8046075817755065e-14   8.6202941148865243e-14   1.2176422535435707e-13   1.0909327701742839e-13   1.4613204920378805e-13   1.3373709411098690e-13   1.7038726400978044e-13   1.5912534659587740e-13   1.9407274497392587e-13   1.8437406160816094e-13   2.1721070121331454e-13   2.0885007416365265e-13   2.4055801831165315e-13   2.3233201505145812e-13   2.6604661028342357e-13   2.5526778142206317e-13   2.9766572765723324e-13   2.7929772522820267e-13   3.4346434087589232e-13   3.0854446257401496e-13   4.2057218343715469e-13   3.5327468350664554e-13   5.6873775588716909e-13   4.4156018285248845e-13   8.8751644305533348e-13   6.6047719118252814e-13   1.6281622468071304e-12   1.3135204308569883e-12   3.4643855382220840e-12   3.5076904509314109e-12   1.7184159186275700e-11   1.0164502060540543e-11   1.3004143215510158e-09   4.2146541406763311e-11   1.0990703257357524e-11   5.4515621626242624e-12   2.0665166085839558e-12   2.0016530703980120e-12   7.8047551424115284e-13   1.2553059960930415e-12   3.6457894216003688e-13   5.9692026050019342e-13   1.8138246346023440e-13   2.5855734667906618e-13   1.0419291461485351e-13   1.3233998540201434e-13   6.6443461235659568e-14   7.8348576497489254e-14   4.4797186603599633e-14   5.0355236727755000e-14   3.1647329534007744e-14   3.3961772355678157e-14   2.4606172934301221e-14   2.4591796572590609e-14   2.2940131811390239e-14   2.0881933533618308e-14   2.6328559282574713e-14   2.2455722829778726e-14   3.4430300959830307e-14   2.9102475746556680e-14   4.6753582826141280e-14   4.0479293007545381e-14   6.2648091857048464e-14   5.6029188180309928e-14   8.1348800929138540e-14   7.4993503337674446e-14   1.0204222299633810e-13   9.6465803494192778e-14   1.2394235026710630e-13   1.1946303206378713e-13   1.4637087946657564e-13   1.4300279134745267e-13   1.6884021110088156e-13   1.6618298039482773e-13   1.9114061860587045e-13   1.8826712044284693e-13   2.1343602295924640e-13   2.0879158220785520e-13   2.3637527070018249e-13   2.2774184885811589e-13   2.6122028176626797e-13   2.4592397461196803e-13   2.8994942008635144e-13   2.6585793526000158e-13   3.2517022729823186e-13   2.9398991282146811e-13   3.7018389905714782e-13   3.4580429517355800e-13   4.4285169854091121e-13   4.5429889759429606e-13   7.8385796080913851e-13   6.6188474543272661e-13   4.0558262665246295e-12   8.9809135533264876e-13   2.8401212599428685e-11   1.5293810650808670e-12   2.2305795335771776e-11   1.2986450360824206e-11   1.5960442910239954e-12   1.2526569332045693e-12   1.6660900128465752e-12   1.1396722688203944e-12   6.6336831203652669e-13   6.1395293172415635e-13   3.5427662714348185e-13   4.8533771655764728e-13   2.1364701279648631e-13   3.1757959476259227e-13   1.2991747851242971e-13   1.8594835445422993e-13   7.9020234607010590e-14   1.0681385394237054e-13   4.7908471515928504e-14   6.1298411042334659e-14   2.9260362139368836e-14   3.5025678278761273e-14   1.9348323922298778e-14   2.0662181941941300e-14   1.6277989956223896e-14   1.4729125827745450e-14   1.8956088010658037e-14   1.5486850370708636e-14   2.6571588475957383e-14   2.1883101381272894e-14   3.8361339190287512e-14   3.3068013024705921e-14   5.3522501643326550e-14   4.8187795193587312e-14   7.1198192343146466e-14   6.6315166236813697e-14   9.0497175870856461e-14   8.6446485447962941e-14   1.1052524629441041e-13   1.0752959985527553e-13   1.3041302500672587e-13   1.2850294388294337e-13   1.4932602741350256e-13   1.4833505009411363e-13   1.6643901079958841e-13   1.6605924093671105e-13   1.8084739154309055e-13   1.8080400452367019e-13   1.9137612202352635e-13   1.9182759411553118e-13   1.9625868192592173e-13   1.9857354025597693e-13   1.9287463386551250e-13   2.0074624219575687e-13   1.7912534752746396e-13   1.9824405274095408e-13   1.6536075216233473e-13   1.9015844432333240e-13   2.3844250826253273e-13   1.7145552088450955e-13   8.1281782564724462e-13   1.4017092546873991e-13   2.9792965998147444e-12   2.6029008602685039e-13   5.4665154049180053e-12   1.6674268416754612e-12   5.5666585904464008e-12   5.7390615708198013e-12   5.3690620490576255e-13   4.5795268055215927e-13   8.2974740271851544e-13   5.7112423373818888e-13   5.7761560200279632e-13   3.7917371804079422e-13   3.3002176391590485e-13   2.9989737698636066e-13   2.0369335173052314e-13   2.4139850708876039e-13   1.2903892299929618e-13   1.7018725542879202e-13   7.9558297666427258e-14   1.0748531620953187e-13   4.6713556819815032e-14   6.2475382072258877e-14   2.6142666053058408e-14   3.3593348374662824e-14   1.5011320045140211e-14   1.7163618054160569e-14   1.1397451653537025e-14   1.0214841182719793e-14   1.3918107263125469e-14   1.0681112641838857e-14   2.1460713487182918e-14   1.7067653525959301e-14   3.3016584578621633e-14   2.8154830928853944e-14   4.7594086097989157e-14   4.2820384684135746e-14   6.4182899181841374e-14   5.9953299656189690e-14   8.1745062856969488e-14   7.8424011273542617e-14   9.9213659500242087e-14   9.7084260767977691e-14   1.1548314932938809e-13   1.1477829361095234e-13   1.2937647116088722e-13   1.3035273850600037e-13   1.3957535189145973e-13   1.4265592984711728e-13   1.4450998087962786e-13   1.5051927858067656e-13   1.4225120675683891e-13   1.5271359957397807e-13   1.3063115960829283e-13   1.4787281094875783e-13   1.0844934026388341e-13   1.3439310474578579e-13   8.0548009683194129e-14   1.1048428860074014e-13   7.4082101263194295e-14   7.5661897696678768e-14   1.7597052295201489e-13   4.0481286530391845e-14   5.5508491921960575e-13   7.0024361876265991e-14   1.2299215606307344e-12   4.0139462990834341e-13   1.7587764909866169e-12   1.4382872583781307e-12   2.9004202693072635e-12   2.7517295543225298e-12   2.4973927864004079e-13   2.2113888705961313e-13   3.5273504942516555e-13   2.7362943004347185e-13   3.6395023358527048e-13   2.2882970153149994e-13   2.6198477334366194e-13   1.8558789406327155e-13   1.7261418209133275e-13   1.5708146670813999e-13   1.1141708702100970e-13   1.2285637966554839e-13   6.9063574885075971e-14   8.4755778040220975e-14   3.9871809712370851e-14   5.1477631411282695e-14   2.1112419718641705e-14   2.7361880867656534e-14   1.1007166858890185e-14   1.2870138180989636e-14   8.1020768869071855e-15   6.8900886718089253e-15   1.1113310429521999e-14   7.9574370391519295e-15   1.8857580321897622e-14   1.4647668388241371e-14   3.0199345685448383e-14   2.5633696182596404e-14   4.4013900785173907e-14   3.9655282636007299e-14   5.9166180301848849e-14   5.5485263041640666e-14   7.4499410547042313e-14   7.1911849017264071e-14   8.8825261727451706e-14   8.7734698391830047e-14   1.0090771760551683e-13   1.0176728996235575e-13   1.0943699979008247e-13   1.1283856141305618e-13   1.1300215568359865e-13   1.1978956493000783e-13   1.1010495956886136e-13   1.2146695200410930e-13   9.9347464419822702e-14   1.1673096236363086e-13   8.0143735673121116e-14   1.0454458431904670e-13   5.4760923518801022e-14   8.4371106016994980e-14   3.3107086389760186e-14   5.7619345984817447e-14   4.1023504661325288e-14   3.2309215839400042e-14   1.2519903134352857e-13   3.5884066243174573e-14   3.2805129429219800e-13   1.3998520124929758e-13   6.3278701428919506e-13   4.6733659512231350e-13   1.0791288397587071e-12   1.0552087691882979e-12   1.7442031026926522e-12   1.5777723841593477e-12   1.3603884673041281e-13   1.2783140328746054e-13   1.6154127498878840e-13   1.3869980274025009e-13   1.9351996288195885e-13   1.2834188408610249e-13   1.7038065468732559e-13   1.1040027045505978e-13   1.2528736314885438e-13   9.4848142569620418e-14   8.4002339727100679e-14   7.7130157797007515e-14   5.2142917312823370e-14   5.5813230703417692e-14   2.9377358629095070e-14   3.4869712788769778e-14   1.4754098626157811e-14   1.8358084007494678e-14   7.3504827549624887e-15   8.2387215831384212e-15   6.1890685019196083e-15   4.7315091667515627e-15   1.0213239135013483e-14   7.1273621150081043e-15   1.8310128646815564e-14   1.4327994052370638e-14   2.9333296956756222e-14   2.5105290078072480e-14   4.2116028330495242e-14   3.8205773770575311e-14   5.5478759645280764e-14   5.2389502614314745e-14   6.8233639793196344e-14   6.6446856084442683e-14   7.9187419817926207e-14   7.9209985572820486e-14   8.7145216120850426e-14   8.9564074793783408e-14   9.0924888231837873e-14   9.6460868519615643e-14   8.9409661864626917e-14   9.8940745851468407e-14   8.1704667473025340e-14   9.6182323804235822e-14   6.7535231307346989e-14   8.7630438387199550e-14   4.8135606543545970e-14   7.3330848645424107e-14   2.7956208595171347e-14   5.4778798099542063e-14   1.7233380817644969e-14   3.6939630466358041e-14   3.4008163805562032e-14   3.2496944534986920e-14   1.0132813957573484e-13   6.8565289252432411e-14   2.3744182197548754e-13   1.8972394949035888e-13   4.5768055899612144e-13   4.3496163222640051e-13   7.9566117326857520e-13   7.6660579487726289e-13   1.1609395207115631e-12   1.0350150458712477e-12   8.7394677272716716e-14   8.8769088457791328e-14   8.1966767915080946e-14   7.8546300989677364e-14   9.6165809116993903e-14   7.0530500688866060e-14   9.5184238066486218e-14   6.1954340026049492e-14   7.7261828099987693e-14   5.3222786417852783e-14   5.4238268102327617e-14   4.3283734103414366e-14   3.3665929113299009e-14   3.1513842687910993e-14   1.8283782707565381e-14   1.9613520070021952e-14   8.7067204370925588e-15   1.0099897565066755e-14   4.7369077859823270e-15   4.7428898796115934e-15   5.7797296641978119e-15   4.1668749429126193e-15   1.0995693775737016e-14   8.1063030751775492e-15   1.9391018570616729e-14   1.5769431237069495e-14   2.9883265141903014e-14   2.6106646333026220e-14   4.1348207382225174e-14   3.7970044664606654e-14   5.2653264084543007e-14   5.0201346734955863e-14   6.2683423400025862e-14   6.1681893097614509e-14   7.0366078929904571e-14   7.1365745207254149e-14   7.4704020731351527e-14   7.8308300160686523e-14   7.4833407689401291e-14   8.1700605309900756e-14   7.0138372453989307e-14   8.0924363744604673e-14   6.0477623951366684e-14   7.5657209553942779e-14   4.6606319741828428e-14   6.6088951169721636e-14   3.0881357877840243e-14   5.3367288646105846e-14   1.8239957098303859e-14   4.0476235527439480e-14   1.7100196661261502e-14   3.3791748774773473e-14   3.9255516780202356e-14   4.5241616280406848e-14   9.7907563103943670e-14   9.3517691697890243e-14   2.0557096453505651e-13   1.9942483202681962e-13   3.7484497099657568e-13   3.6857034738579853e-13   6.0722827142605029e-13   5.6745309642693492e-13   8.2831282808835025e-13   7.3340921411997674e-13   7.0723681345264489e-14   7.7329791934293639e-14   5.0443740125200991e-14   5.5406495824296929e-14   4.8538885101175885e-14   4.2700980295996582e-14   4.8060108444290260e-14   3.4878569792262017e-14   4.1012947109194215e-14   2.8532164494515572e-14   2.9608807995352037e-14   2.2255973277783361e-14   1.8160877262657428e-14   1.5666910231915525e-14   9.4520038320225958e-15   9.5209197720636098e-15   4.6637473268724519e-15   5.1565276500607192e-15   3.9985286805611090e-15   3.6944325341032070e-15   7.1042821623850775e-15   5.6236579256167480e-15   1.3301661555344466e-14   1.0794682739523096e-14   2.1716526240266186e-14   1.8595565764456229e-14   3.1369217170551512e-14   2.8146177589791959e-14   4.1239906219445043e-14   3.8448786207614528e-14   5.0319220560272348e-14   4.8490591075012163e-14   5.7651440377427779e-14   5.7312147506400242e-14   6.2378319826991678e-14   6.4056959097526879e-14   6.3794322794812845e-14   6.8015287303636191e-14   6.1429243536168512e-14   6.8675150912037490e-14   5.5181506164703421e-14   6.5797954572179555e-14   4.5531799997630464e-14   5.9546823072427585e-14   3.3862285022422272e-14   5.0713260473991069e-14   2.2869970482433232e-14   4.1107023371953755e-14   1.6965137567619526e-14   3.4167844868867347e-14   2.2394353186204749e-14   3.5741875447765740e-14   4.6780109504946315e-14   5.4568185493181821e-14   9.8148024131904024e-14   1.0120359611924209e-13   1.8400278536632587e-13   1.8342262795025948e-13   3.0912158173460112e-13   2.9789263363017269e-13   4.6645470938940567e-13   4.2458450852451542e-13   6.1383178289771070e-13   5.3794625146179940e-13   7.3075507366195301e-14   8.2696076870460617e-14   4.3892190631562508e-14   5.2864905702012320e-14   3.0730906150426460e-14   3.4560290880007899e-14   2.5196388804377474e-14   2.4179666151415667e-14   2.0265901329247758e-14   1.7495060096436132e-14   1.4333225601369627e-14   1.2490390493586100e-14   8.6751193597189720e-15   8.4863989410842264e-15   4.8584951958782432e-15   5.6446513397869276e-15   3.7883158992680877e-15   4.5245108135224806e-15   5.6786942650479328e-15   5.6402778579119410e-15   1.0251379108490377e-14   9.1791223598445931e-15   1.6916413252216569e-14   1.4930682008520341e-14   2.4902024750248952e-14   2.2356610521668715e-14   3.3348116241861285e-14   3.0710668999807230e-14   4.1377391818314736e-14   3.9155196468882022e-14   4.8153255898075602e-14   4.6854757130751782e-14   5.2931538886344015e-14   5.3047054617976239e-14   5.5113244299305579e-14   5.7098600812224381e-14   5.4306917920283754e-14   5.8554854969281015e-14   5.0411096628160480e-14   5.7196091542780077e-14   4.3727967456766040e-14   5.3113212904110242e-14   3.5115235970858644e-14   4.6822244113547291e-14   2.6167953252533756e-14   3.9439444656801373e-14   1.9388910577062743e-14   3.2930967450679745e-14   1.8258725395931534e-14   3.0407812158575705e-14   2.7090912057235596e-14   3.6317018751224298e-14   5.0625242876407483e-14   5.6154838182439955e-14   9.3461788148597041e-14   9.5106303006734702e-14   1.5928713341546929e-13   1.5526542979030793e-13   2.4894538590518960e-13   2.3253477719011067e-13   3.5662459577692842e-13   3.1640238296258714e-13   4.6124044503294382e-13   3.9704908434602534e-13   8.7856250086880114e-14   9.8851104028600101e-14   5.2125889672940461e-14   6.2624322854195748e-14   3.1001528792982454e-14   3.9112066985929811e-14   1.9896836234495320e-14   2.5268746432476391e-14   1.3482121068612430e-14   1.6932974914089861e-14   9.0920232496307602e-15   1.1769777342287102e-14   6.2398059618778635e-15   8.7131110562194345e-15   5.2661718414833005e-15   7.4409426053111118e-15   6.4740548014406259e-15   7.9689967603848731e-15   9.8429123680343590e-15   1.0348486718923300e-14   1.5035869676281562e-14   1.4479026855013440e-14   2.1492272341456783e-14   2.0041517142576553e-14   2.8523712096033783e-14   2.6521653345347264e-14   3.5394612007623448e-14   3.3280126897143368e-14   4.1388203354776121e-14   3.9634541624907141e-14   4.5862482355010777e-14   4.4934428546621602e-14   4.8300907357819797e-14   4.8623701091571442e-14   4.8362617293473836e-14   5.0292317131137838e-14   4.5937069715128470e-14   4.9722566640922854e-14   4.1207432781666485e-14   4.6937367388974729e-14   3.4724375602698053e-14   4.2259210597622952e-14   2.7485060725938517e-14   3.6388240250096825e-14   2.0999492680259714e-14   3.0503071500593661e-14   1.7309694096870903e-14   2.6371148360488839e-14   1.8916999824583421e-14   2.6415805312629790e-14   2.8589634334100741e-14   3.3618431679222017e-14   4.9074862237005757e-14   5.1062700377419890e-14   8.2763648127265105e-14   8.0961601147991466e-14   1.3121154101086914e-13   1.2333884665995344e-13   1.9421427534176921e-13   1.7521669282653289e-13   2.6879339867383329e-13   2.3149429768341523e-13   3.4542326015342378e-13   2.8918242286751820e-13   1.1058969785951537e-13   1.2145769448898407e-13   6.9431132285465625e-14   7.9613881363618533e-14   4.2356410321916186e-14   5.1539324361260804e-14   2.6397353407825932e-14   3.4285036898433921e-14   1.7357307535682359e-14   2.3840027488326598e-14   1.2421903415420445e-14   1.7720667006937466e-14   1.0249082793228415e-14   1.4545895162066629e-14   1.0322870348645057e-14   1.3609675220555131e-14   1.2373716104770420e-14   1.4537624648402563e-14   1.6080882321444491e-14   1.7053107075938985e-14   2.0991210747233041e-14   2.0841211602408294e-14   2.6541786807976554e-14   2.5493878026791792e-14   3.2115664386300993e-14   3.0514901809626654e-14   3.7100746012077106e-14   3.5360494027607841e-14   4.0943068983755899e-14   3.9494173914354416e-14   4.3193652868566094e-14   4.2441932688990281e-14   4.3550355805756609e-14   4.3840898246441840e-14   4.1896611616258121e-14   4.3480109790627512e-14   3.8338518696301740e-14   4.1335306747632948e-14   3.3240334942582900e-14   3.7601312823010141e-14   2.7255394772927810e-14   3.2725772437156902e-14   2.1344431813212519e-14   2.7445845688988962e-14   1.6767176388233790e-14   2.2822886906117687e-14   1.5029620312384910e-14   2.0256094245505066e-14   1.7775511939394718e-14   2.1433223365412621e-14   2.6631865242906231e-14   2.8152182220905026e-14   4.3043920590880736e-14   4.1950097927215157e-14   6.8126991028296795e-14   6.3560027962692689e-14   1.0249712742572548e-13   9.2419304290678732e-14   1.4603762487009715e-13   1.2668915127387963e-13   1.9792566059907679e-13   1.6411792837672759e-13   2.5461268427017788e-13   2.0472434210234522e-13   1.3758305427723758e-13   1.4691828931170110e-13   9.1838864333874491e-14   1.0019585891653795e-13   6.0177650314905343e-14   6.8310321273855411e-14   4.0257613656938539e-14   4.8076895839583613e-14   2.8452340368743283e-14   3.5513869979512376e-14   2.1993712769461964e-14   2.8041211180819657e-14   1.9155935354891807e-14   2.4055180617190671e-14   1.8917168807508806e-14   2.2575283901776411e-14   2.0597812540135221e-14   2.2962142584920384e-14   2.3627577782086158e-14   2.4726903016799394e-14   2.7445821437706135e-14   2.7422045953184897e-14   3.1486272145139990e-14   3.0594119439983467e-14   3.5200981007894634e-14   3.3779790014139261e-14   3.8097029854210693e-14   3.6528582674398696e-14   3.9773951213460819e-14   3.8438271875855148e-14   3.9957310018222636e-14   3.9192541002548246e-14   3.8526973759302057e-14   3.8594574466816506e-14   3.5539522102166099e-14   3.6593782249334773e-14   3.1244063903954886e-14   3.3305383577980624e-14   2.6089711444525380e-14   2.9023911534649679e-14   2.0721212803606797e-14   2.4231615073555411e-14   1.5957268211757756e-14   1.9600676794807744e-14   1.2745313060209502e-14   1.5983308196126620e-14   1.2089648364630437e-14   1.4375807742228404e-14   1.4959288140054493e-14   1.5833847379558347e-14   2.2196406471962324e-14   2.1314901493213698e-14   3.4455670445701693e-14   3.1446246281624746e-14   5.2193961108467153e-14   4.6280328250070286e-14   7.5705042864688850e-14   6.5194161161382437e-14   1.0521470848275616e-13   8.7145100643726072e-14   1.4118907516887343e-13   1.1133555558514701e-13   1.8304089640474071e-13   1.3908393836351406e-13   1.6556787372665829e-13   1.7213421909556450e-13   1.1620344000860327e-13   1.2151762273113144e-13   8.1082933743516034e-14   8.6697834949305164e-14   5.8057307246727917e-14   6.4086063859803548e-14   4.3718526422090462e-14   4.9616815187597314e-14   3.5345640218035466e-14   4.0631787054253751e-14   3.1055156604026621e-14   3.5391619875645027e-14   2.9568237266340453e-14   3.2751843025907803e-14   2.9968882206269996e-14   3.1920639688058564e-14   3.1532891546672715e-14   3.2296123448640516e-14   3.3637803107283392e-14   3.3371904823896754e-14   3.5732811383310582e-14   3.4693324916052113e-14   3.7342736473187001e-14   3.5848046469748864e-14   3.8086764594745966e-14   3.6477609376030147e-14   3.77004958