<?xml version="1.0"?>
<VTKFile type="UnstructuredGrid"  version="0.1"  >
<UnstructuredGrid>
<Piece  NumberOfPoints="1089" NumberOfCells="2048">
<Points>
<DataArray  type="Float64"  NumberOfComponents="3"  format="ascii">0 0 0  0.03125 0 0  0.0625 0 0  0.09375 0 0  0.125 0 0  0.15625 0 0  0.1875 0 0  0.21875 0 0  0.25 0 0  0.28125 0 0  0.3125 0 0  0.34375 0 0  0.375 0 0  0.40625 0 0  0.4375 0 0  0.46875 0 0  0.5 0 0  0.53125 0 0  0.5625 0 0  0.59375 0 0  0.625 0 0  0.65625 0 0  0.6875 0 0  0.71875 0 0  0.75 0 0  0.78125 0 0  0.8125 0 0  0.84375 0 0  0.875 0 0  0.90625 0 0  0.9375 0 0  0.96875 0 0  1 0 0  0 0.03125 0  0.03125 0.03125 0  0.0625 0.03125 0  0.09375 0.03125 0  0.125 0.03125 0  0.15625 0.03125 0  0.1875 0.03125 0  0.21875 0.03125 0  0.25 0.03125 0  0.28125 0.03125 0  0.3125 0.03125 0  0.34375 0.03125 0  0.375 0.03125 0  0.40625 0.03125 0  0.4375 0.03125 0  0.46875 0.03125 0  0.5 0.03125 0  0.53125 0.03125 0  0.5625 0.03125 0  0.59375 0.03125 0  0.625 0.03125 0  0.65625 0.03125 0  0.6875 0.03125 0  0.71875 0.03125 0  0.75 0.03125 0  0.78125 0.03125 0  0.8125 0.03125 0  0.84375 0.03125 0  0.875 0.03125 0  0.90625 0.03125 0  0.9375 0.03125 0  0.96875 0.03125 0  1 0.03125 0  0 0.0625 0  0.03125 0.0625 0  0.0625 0.0625 0  0.09375 0.0625 0  0.125 0.0625 0  0.15625 0.0625 0  0.1875 0.0625 0  0.21875 0.0625 0  0.25 0.0625 0  0.28125 0.0625 0  0.3125 0.0625 0  0.34375 0.0625 0  0.375 0.0625 0  0.40625 0.0625 0  0.4375 0.0625 0  0.46875 0.0625 0  0.5 0.0625 0  0.53125 0.0625 0  0.5625 0.0625 0  0.59375 0.0625 0  0.625 0.0625 0  0.65625 0.0625 0  0.6875 0.0625 0  0.71875 0.0625 0  0.75 0.0625 0  0.78125 0.0625 0  0.8125 0.0625 0  0.84375 0.0625 0  0.875 0.0625 0  0.90625 0.0625 0  0.9375 0.0625 0  0.96875 0.0625 0  1 0.0625 0  0 0.09375 0  0.03125 0.09375 0  0.0625 0.09375 0  0.09375 0.09375 0  0.125 0.09375 0  0.15625 0.09375 0  0.1875 0.09375 0  0.21875 0.09375 0  0.25 0.09375 0  0.28125 0.09375 0  0.3125 0.09375 0  0.34375 0.09375 0  0.375 0.09375 0  0.40625 0.09375 0  0.4375 0.09375 0  0.46875 0.09375 0  0.5 0.09375 0  0.53125 0.09375 0  0.5625 0.09375 0  0.59375 0.09375 0  0.625 0.09375 0  0.65625 0.09375 0  0.6875 0.09375 0  0.71875 0.09375 0  0.75 0.09375 0  0.78125 0.09375 0  0.8125 0.09375 0  0.84375 0.09375 0  0.875 0.09375 0  0.90625 0.09375 0  0.9375 0.09375 0  0.96875 0.09375 0  1 0.09375 0  0 0.125 0  0.03125 0.125 0  0.0625 0.125 0  0.09375 0.125 0  0.125 0.125 0  0.15625 0.125 0  0.1875 0.125 0  0.21875 0.125 0  0.25 0.125 0  0.28125 0.125 0  0.3125 0.125 0  0.34375 0.125 0  0.375 0.125 0  0.40625 0.125 0  0.4375 0.125 0  0.46875 0.125 0  0.5 0.125 0  0.53125 0.125 0  0.5625 0.125 0  0.59375 0.125 0  0.625 0.125 0  0.65625 0.125 0  0.6875 0.125 0  0.71875 0.125 0  0.75 0.125 0  0.78125 0.125 0  0.8125 0.125 0  0.84375 0.125 0  0.875 0.125 0  0.90625 0.125 0  0.9375 0.125 0  0.96875 0.125 0  1 0.125 0  0 0.15625 0  0.03125 0.15625 0  0.0625 0.15625 0  0.09375 0.15625 0  0.125 0.15625 0  0.15625 0.15625 0  0.1875 0.15625 0  0.21875 0.15625 0  0.25 0.15625 0  0.28125 0.15625 0  0.3125 0.15625 0  0.34375 0.15625 0  0.375 0.15625 0  0.40625 0.15625 0  0.4375 0.15625 0  0.46875 0.15625 0  0.5 0.15625 0  0.53125 0.15625 0  0.5625 0.15625 0  0.59375 0.15625 0  0.625 0.15625 0  0.65625 0.15625 0  0.6875 0.15625 0  0.71875 0.15625 0  0.75 0.15625 0  0.78125 0.15625 0  0.8125 0.15625 0  0.84375 0.15625 0  0.875 0.15625 0  0.90625 0.15625 0  0.9375 0.15625 0  0.96875 0.15625 0  1 0.15625 0  0 0.1875 0  0.03125 0.1875 0  0.0625 0.1875 0  0.09375 0.1875 0  0.125 0.1875 0  0.15625 0.1875 0  0.1875 0.1875 0  0.21875 0.1875 0  0.25 0.1875 0  0.28125 0.1875 0  0.3125 0.1875 0  0.34375 0.1875 0  0.375 0.1875 0  0.40625 0.1875 0  0.4375 0.1875 0  0.46875 0.1875 0  0.5 0.1875 0  0.53125 0.1875 0  0.5625 0.1875 0  0.59375 0.1875 0  0.625 0.1875 0  0.65625 0.1875 0  0.6875 0.1875 0  0.71875 0.1875 0  0.75 0.1875 0  0.78125 0.1875 0  0.8125 0.1875 0  0.84375 0.1875 0  0.875 0.1875 0  0.90625 0.1875 0  0.9375 0.1875 0  0.96875 0.1875 0  1 0.1875 0  0 0.21875 0  0.03125 0.21875 0  0.0625 0.21875 0  0.09375 0.21875 0  0.125 0.21875 0  0.15625 0.21875 0  0.1875 0.21875 0  0.21875 0.21875 0  0.25 0.21875 0  0.28125 0.21875 0  0.3125 0.21875 0  0.34375 0.21875 0  0.375 0.21875 0  0.40625 0.21875 0  0.4375 0.21875 0  0.46875 0.21875 0  0.5 0.21875 0  0.53125 0.21875 0  0.5625 0.21875 0  0.59375 0.21875 0  0.625 0.21875 0  0.65625 0.21875 0  0.6875 0.21875 0  0.71875 0.21875 0  0.75 0.21875 0  0.78125 0.21875 0  0.8125 0.21875 0  0.84375 0.21875 0  0.875 0.21875 0  0.90625 0.21875 0  0.9375 0.21875 0  0.96875 0.21875 0  1 0.21875 0  0 0.25 0  0.03125 0.25 0  0.0625 0.25 0  0.09375 0.25 0  0.125 0.25 0  0.15625 0.25 0  0.1875 0.25 0  0.21875 0.25 0  0.25 0.25 0  0.28125 0.25 0  0.3125 0.25 0  0.34375 0.25 0  0.375 0.25 0  0.40625 0.25 0  0.4375 0.25 0  0.46875 0.25 0  0.5 0.25 0  0.53125 0.25 0  0.5625 0.25 0  0.59375 0.25 0  0.625 0.25 0  0.65625 0.25 0  0.6875 0.25 0  0.71875 0.25 0  0.75 0.25 0  0.78125 0.25 0  0.8125 0.25 0  0.84375 0.25 0  0.875 0.25 0  0.90625 0.25 0  0.9375 0.25 0  0.96875 0.25 0  1 0.25 0  0 0.28125 0  0.03125 0.28125 0  0.0625 0.28125 0  0.09375 0.28125 0  0.125 0.28125 0  0.15625 0.28125 0  0.1875 0.28125 0  0.21875 0.28125 0  0.25 0.28125 0  0.28125 0.28125 0  0.3125 0.28125 0  0.34375 0.28125 0  0.375 0.28125 0  0.40625 0.28125 0  0.4375 0.28125 0  0.46875 0.28125 0  0.5 0.28125 0  0.53125 0.28125 0  0.5625 0.28125 0  0.59375 0.28125 0  0.625 0.28125 0  0.65625 0.28125 0  0.6875 0.28125 0  0.71875 0.28125 0  0.75 0.28125 0  0.78125 0.28125 0  0.8125 0.28125 0  0.84375 0.28125 0  0.875 0.28125 0  0.90625 0.28125 0  0.9375 0.28125 0  0.96875 0.28125 0  1 0.28125 0  0 0.3125 0  0.03125 0.3125 0  0.0625 0.3125 0  0.09375 0.3125 0  0.125 0.3125 0  0.15625 0.3125 0  0.1875 0.3125 0  0.21875 0.3125 0  0.25 0.3125 0  0.28125 0.3125 0  0.3125 0.3125 0  0.34375 0.3125 0  0.375 0.3125 0  0.40625 0.3125 0  0.4375 0.3125 0  0.46875 0.3125 0  0.5 0.3125 0  0.53125 0.3125 0  0.5625 0.3125 0  0.59375 0.3125 0  0.625 0.3125 0  0.65625 0.3125 0  0.6875 0.3125 0  0.71875 0.3125 0  0.75 0.3125 0  0.78125 0.3125 0  0.8125 0.3125 0  0.84375 0.3125 0  0.875 0.3125 0  0.90625 0.3125 0  0.9375 0.3125 0  0.96875 0.3125 0  1 0.3125 0  0 0.34375 0  0.03125 0.34375 0  0.0625 0.34375 0  0.09375 0.34375 0  0.125 0.34375 0  0.15625 0.34375 0  0.1875 0.34375 0  0.21875 0.34375 0  0.25 0.34375 0  0.28125 0.34375 0  0.3125 0.34375 0  0.34375 0.34375 0  0.375 0.34375 0  0.40625 0.34375 0  0.4375 0.34375 0  0.46875 0.34375 0  0.5 0.34375 0  0.53125 0.34375 0  0.5625 0.34375 0  0.59375 0.34375 0  0.625 0.34375 0  0.65625 0.34375 0  0.6875 0.34375 0  0.71875 0.34375 0  0.75 0.34375 0  0.78125 0.34375 0  0.8125 0.34375 0  0.84375 0.34375 0  0.875 0.34375 0  0.90625 0.34375 0  0.9375 0.34375 0  0.96875 0.34375 0  1 0.34375 0  0 0.375 0  0.03125 0.375 0  0.0625 0.375 0  0.09375 0.375 0  0.125 0.375 0  0.15625 0.375 0  0.1875 0.375 0  0.21875 0.375 0  0.25 0.375 0  0.28125 0.375 0  0.3125 0.375 0  0.34375 0.375 0  0.375 0.375 0  0.40625 0.375 0  0.4375 0.375 0  0.46875 0.375 0  0.5 0.375 0  0.53125 0.375 0  0.5625 0.375 0  0.59375 0.375 0  0.625 0.375 0  0.65625 0.375 0  0.6875 0.375 0  0.71875 0.375 0  0.75 0.375 0  0.78125 0.375 0  0.8125 0.375 0  0.84375 0.375 0  0.875 0.375 0  0.90625 0.375 0  0.9375 0.375 0  0.96875 0.375 0  1 0.375 0  0 0.40625 0  0.03125 0.40625 0  0.0625 0.40625 0  0.09375 0.40625 0  0.125 0.40625 0  0.15625 0.40625 0  0.1875 0.40625 0  0.21875 0.40625 0  0.25 0.40625 0  0.28125 0.40625 0  0.3125 0.40625 0  0.34375 0.40625 0  0.375 0.40625 0  0.40625 0.40625 0  0.4375 0.40625 0  0.46875 0.40625 0  0.5 0.40625 0  0.53125 0.40625 0  0.5625 0.40625 0  0.59375 0.40625 0  0.625 0.40625 0  0.65625 0.40625 0  0.6875 0.40625 0  0.71875 0.40625 0  0.75 0.40625 0  0.78125 0.40625 0  0.8125 0.40625 0  0.84375 0.40625 0  0.875 0.40625 0  0.90625 0.40625 0  0.9375 0.40625 0  0.96875 0.40625 0  1 0.40625 0  0 0.4375 0  0.03125 0.4375 0  0.0625 0.4375 0  0.09375 0.4375 0  0.125 0.4375 0  0.15625 0.4375 0  0.1875 0.4375 0  0.21875 0.4375 0  0.25 0.4375 0  0.28125 0.4375 0  0.3125 0.4375 0  0.34375 0.4375 0  0.375 0.4375 0  0.40625 0.4375 0  0.4375 0.4375 0  0.46875 0.4375 0  0.5 0.4375 0  0.53125 0.4375 0  0.5625 0.4375 0  0.59375 0.4375 0  0.625 0.4375 0  0.65625 0.4375 0  0.6875 0.4375 0  0.71875 0.4375 0  0.75 0.4375 0  0.78125 0.4375 0  0.8125 0.4375 0  0.84375 0.4375 0  0.875 0.4375 0  0.90625 0.4375 0  0.9375 0.4375 0  0.96875 0.4375 0  1 0.4375 0  0 0.46875 0  0.03125 0.46875 0  0.0625 0.46875 0  0.09375 0.46875 0  0.125 0.46875 0  0.15625 0.46875 0  0.1875 0.46875 0  0.21875 0.46875 0  0.25 0.46875 0  0.28125 0.46875 0  0.3125 0.46875 0  0.34375 0.46875 0  0.375 0.46875 0  0.40625 0.46875 0  0.4375 0.46875 0  0.46875 0.46875 0  0.5 0.46875 0  0.53125 0.46875 0  0.5625 0.46875 0  0.59375 0.46875 0  0.625 0.46875 0  0.65625 0.46875 0  0.6875 0.46875 0  0.71875 0.46875 0  0.75 0.46875 0  0.78125 0.46875 0  0.8125 0.46875 0  0.84375 0.46875 0  0.875 0.46875 0  0.90625 0.46875 0  0.9375 0.46875 0  0.96875 0.46875 0  1 0.46875 0  0 0.5 0  0.03125 0.5 0  0.0625 0.5 0  0.09375 0.5 0  0.125 0.5 0  0.15625 0.5 0  0.1875 0.5 0  0.21875 0.5 0  0.25 0.5 0  0.28125 0.5 0  0.3125 0.5 0  0.34375 0.5 0  0.375 0.5 0  0.40625 0.5 0  0.4375 0.5 0  0.46875 0.5 0  0.5 0.5 0  0.53125 0.5 0  0.5625 0.5 0  0.59375 0.5 0  0.625 0.5 0  0.65625 0.5 0  0.6875 0.5 0  0.71875 0.5 0  0.75 0.5 0  0.78125 0.5 0  0.8125 0.5 0  0.84375 0.5 0  0.875 0.5 0  0.90625 0.5 0  0.9375 0.5 0  0.96875 0.5 0  1 0.5 0  0 0.53125 0  0.03125 0.53125 0  0.0625 0.53125 0  0.09375 0.53125 0  0.125 0.53125 0  0.15625 0.53125 0  0.1875 0.53125 0  0.21875 0.53125 0  0.25 0.53125 0  0.28125 0.53125 0  0.3125 0.53125 0  0.34375 0.53125 0  0.375 0.53125 0  0.40625 0.53125 0  0.4375 0.53125 0  0.46875 0.53125 0  0.5 0.53125 0  0.53125 0.53125 0  0.5625 0.53125 0  0.59375 0.53125 0  0.625 0.53125 0  0.65625 0.53125 0  0.6875 0.53125 0  0.71875 0.53125 0  0.75 0.53125 0  0.78125 0.531
[...]
<CellData  Scalars="f_59157"> 
<DataArray  type="Float64"  Name="f_59157"  format="ascii">2.8931660397443618e-06   2.8704392598239952e-06   2.8378465213978152e-06   2.8148791662353057e-06   2.7292932759003237e-06   2.7067377428981655e-06   2.5716800544028609e-06   2.5501060737321899e-06   2.3710646631538905e-06   2.3509403919122633e-06   2.1351568701168757e-06   2.1168518563350569e-06   1.8730224784015293e-06   1.8568103939801281e-06   1.5947350911462600e-06   1.5807941489594005e-06   1.3109890511652849e-06   1.2994016593830361e-06   1.0326884836631505e-06   1.0234417947580676e-06   7.7052826064158775e-07   7.6351674338273273e-07   5.3458300157820533e-07   5.2961364770960866e-07   3.3391990924656378e-07   3.3072028950840207e-07   1.7625032054935127e-07   1.7447941463060661e-07   6.7633363235301452e-08   6.6894876733118389e-08   1.2243106562841800e-08   1.2100833205295936e-08   1.2208153843887795e-08   1.2202829615714764e-08   6.7529840903754428e-08   6.7196860704795427e-08   1.7608218371869769e-07   1.7496950644199105e-07   3.3369357688975069e-07   3.3137912815718285e-07   5.3430710289785370e-07   5.3041499248353829e-07   7.7021329100395828e-07   7.6442818845085130e-07   1.0323463803578354e-06   1.0244254274129894e-06   1.3106327015174515e-06   1.3004143657964466e-06   1.5943777883571796e-06   1.5817870463600128e-06   1.8726773462354591e-06   1.8577264646177923e-06   2.1348362918770331e-06   2.1176201376143644e-06   2.3707797864692058e-06   2.3514638095172175e-06   2.5714405310030597e-06   2.5502378479792932e-06   2.7291076026079800e-06   2.7062378857124061e-06   2.8377238357576614e-06   2.8133382909866189e-06   2.8931214074551541e-06   2.8671577082172628e-06   2.8709875041329805e-06   2.7916476783578943e-06   2.8170296943402203e-06   2.7372863162352320e-06   2.7114520522570422e-06   2.6332225391603520e-06   2.5582495747836943e-06   2.4831990848240071e-06   2.3632468389669927e-06   2.2928220016731777e-06   2.1338945861387508e-06   2.0693127856404750e-06   1.8789802559316217e-06   1.8212063246255411e-06   1.6082845846863960e-06   1.5580064738634633e-06   1.3322013795848726e-06   1.2898106893559474e-06   1.0613353005924869e-06   1.0269160244871502e-06   8.0609266910568598e-07   7.7942001806156816e-07   5.7628060952221864e-07   5.5683075356831090e-07   3.8072963811349347e-07   3.6770042857055171e-07   2.2695402235378521e-07   2.1929613699985132e-07   1.2086285645473501e-07   1.1732029976622846e-07   6.6532895364886237e-08   6.5691366209517524e-08   6.6051842615173862e-08   6.6393146507061244e-08   1.1943809447019446e-07   1.1939852686910329e-07   2.2464001184855238e-07   2.2267047513346280e-07   3.7761473736056423e-07   3.7224027839021363e-07   5.7248351554575544e-07   5.6235998169937488e-07   8.0175752643587021e-07   7.8572312965724324e-07   1.0566255158841712e-06   1.0337452535312196e-06   1.3272920985587092e-06   1.2968931829761469e-06   1.6033536003269033e-06   1.5650502542709421e-06   1.8741967479182436e-06   1.8279028570300692e-06   2.1294044165076779e-06   2.0753324626432898e-06   2.3591519547217942e-06   2.2977961515496409e-06   2.5545771367918633e-06   2.4866773434176681e-06   2.7081060489549656e-06   2.6345862180338605e-06   2.8137148233019316e-06   2.7355849500412187e-06   2.8670989280970894e-06   2.7853048709973655e-06   2.7932272574572410e-06   2.6604171926957474e-06   2.7430380712816524e-06   2.6087721299029832e-06   2.6450400970805903e-06   2.5123200882243719e-06   2.5027364717394734e-06   2.3743133831085869e-06   2.3214330282923673e-06   2.1997939065877106e-06   2.1080006390898679e-06   1.9953196298565554e-06   1.8705859288269832e-06   1.7686649975170322e-06   1.6182813573843419e-06   1.5284939880956614e-06   1.3607654283102308e-06   1.2840108084837411e-06   1.1079246575673907e-06   1.0445968682579516e-06   8.6947017074955608e-07   8.1944504551858784e-07   6.5456257717550209e-07   6.1720353773135272e-07   4.7145887479694207e-07   4.4564195561004261e-07   3.2719456776316139e-07   3.1135190410438079e-07   2.2731299198911609e-07   2.1949322692031442e-07   1.7565212708924712e-07   1.7359548327040822e-07   1.7419701868631797e-07   1.7542218498784143e-07   2.2300344334487446e-07   2.2490295431785298e-07   3.2019572491765694e-07   3.2013617391518071e-07   4.6203876558496846e-07   4.5746199785955216e-07   6.4308149793183073e-07   6.3160288159173996e-07   8.5636620357476424e-07   8.3586617023348051e-07   1.0936955783782102e-06   1.0624008488346289e-06   1.3459471385747468e-06   1.3024983762441649e-06   1.6034226167267598e-06   1.5469256380170495e-06   1.8562184149159617e-06   1.7862764564095149e-06   2.0946019291713767e-06   2.0113267031838855e-06   2.3093774990487333e-06   2.2133766655085838e-06   2.4922245586229529e-06   2.3845625150477825e-06   2.6359886404313838e-06   2.5181158565412070e-06   2.7349020878309769e-06   2.6085454957623479e-06   2.7847042445762712e-06   2.6517080946534938e-06   2.6635068983962846e-06   2.4821795020537278e-06   2.6194918217538474e-06   2.4347038180936643e-06   2.5333410102736330e-06   2.3490794717922365e-06   2.4078944779775578e-06   2.2279666503697727e-06   2.2477041396996759e-06   2.0756637577885034e-06   2.0587740919372799e-06   1.8978246381537497e-06   1.8482800683380723e-06   1.7011732908363265e-06   1.6242644814026092e-06   1.4932063960837524e-06   1.3953105281421633e-06   1.2818830252024658e-06   1.1702028151545924e-06   1.0753063231640532e-06   9.5758446666997122e-07   8.8140520794240153e-07   7.6562206458197995e-07   7.0762588942261323e-07   6.0169023674367168e-07   5.6064367310798771e-07   4.7208741259316163e-07   4.4610534013469438e-07   3.8179333314071562e-07   3.6841156746643650e-07   3.3427744847720566e-07   3.3054750932399828e-07   3.3136546387845691e-07   3.3396791839923959e-07   3.7316910549106950e-07   3.7854114729306602e-07   4.5808176846195530e-07   4.6255413581843318e-07   5.8284018454498378e-07   5.8277815428620852e-07   7.4264970176062931e-07   7.3459272897073503e-07   9.3136830007522508e-07   9.1216290930176751e-07   1.1417421591085896e-06   1.1086629207113679e-06   1.3656835145013315e-06   1.3165373362302582e-06   1.5945797293500965e-06   1.5277892152442428e-06   1.8196209631562378e-06   1.7342831689338134e-06   2.0321324709480173e-06   1.9280499065067811e-06   2.2238962270854326e-06   2.1015772542201839e-06   2.3874448876986812e-06   2.2480704890258461e-06   2.5163084937042284e-06   2.3616613980957784e-06   2.6051900138825390e-06   2.4375397858708360e-06   2.6500394425184966e-06   2.4719719466405186e-06   2.4871966038744431e-06   2.2640074706344269e-06   2.4515628386892845e-06   2.2220038279147647e-06   2.3810586211748019e-06   2.1499974549455433e-06   2.2777373901107556e-06   2.0499798477929907e-06   2.1452029290621525e-06   1.9253593577104773e-06   1.9883449880195718e-06   1.7806831587368704e-06   1.8130796536029037e-06   1.6213778683674848e-06   1.6260812783487548e-06   1.4534927825461277e-06   1.4345030789992676e-06   1.2834402277501838e-06   1.2456894915939536e-06   1.1177339909612504e-06   1.0668869146641472e-06   9.6273064792306094e-07   9.0496142068418921e-07   8.2438073041651731e-07   7.6613284722554751e-07   7.0799759517957395e-07   6.5573468287774980e-07   6.1805192466405641e-07   5.7800853125723177e-07   5.5799922946801541e-07   5.3594080863165178e-07   5.3014669186932948e-07   5.3114781790880262e-07   5.3556430886464861e-07   5.6381354101181028e-07   5.7404366032517427e-07   6.3268249356971427e-07   6.4410583122421077e-07   7.3510787761836142e-07   7.4305813770388629e-07   8.6715313342428417e-07   8.6709742048538534e-07   1.0237429085210735e-06   1.0114558432726383e-06   1.1988574979254724e-06   1.1705834231706824e-06   1.3857630137171611e-06   1.3383599589879343e-06   1.5772679350066464e-06   1.5083276127128994e-06   1.7659952444519929e-06   1.6739340873776836e-06   1.9446579748945621e-06   1.8287749941542027e-06   2.1063244551785922e-06   1.9668223426674657e-06   2.2446574759700779e-06   2.0826236456532821e-06   2.3541083970204871e-06   2.1714521227167051e-06   2.4300421114557651e-06   2.2293817248429578e-06   2.4687610209150552e-06   2.2532494633804070e-06   2.2712942614840886e-06   2.0144102493650279e-06   2.2459378598278749e-06   1.9789725567340180e-06   2.1942753528849189e-06   1.9228479866185211e-06   2.1174827415208474e-06   1.8473074164492789e-06   2.0180617639275228e-06   1.7547578528334484e-06   1.8995857281663974e-06   1.6484810137328779e-06   1.7664725590170766e-06   1.5324101167895588e-06   1.6237645928707121e-06   1.4109235484440274e-06   1.4769066932735120e-06   1.2886456010957388e-06   1.3315214888792849e-06   1.1702515334163585e-06   1.1931848176186790e-06   1.0602784282606366e-06   1.0672068630797316e-06   9.6294567976183258e-07   9.5842563200947663e-07   8.8199006821248071e-07   8.7101973216104363e-07   8.2052067800610379e-07   8.0834710865988986e-07   7.8089863602966123e-07   7.7281564384953818e-07   7.6464596445712688e-07   7.6579043426203013e-07   7.7238687136011746e-07   7.8754121905525185e-07   8.0382363472037591e-07   8.3723192465796988e-07   8.5774794393738290e-07   9.1295268123087806e-07   9.3208721143999192e-07   1.0117930232261444e-06   1.0239840112948892e-06   1.1299533672767986e-06   1.1299054885337542e-06   1.2628903134217918e-06   1.2457783461315887e-06   1.4054898697823954e-06   1.3671438696449298e-06   1.5522613562274224e-06   1.4893263730948456e-06   1.6975434515608404e-06   1.6076073710589660e-06   1.8357124875850672e-06   1.7173965418523869e-06   1.9613814200530284e-06   1.8143888463331272e-06   2.0695755030297980e-06   1.8946944861045804e-06   2.1558669003705568e-06   1.9549238640424587e-06   2.2164443565369876e-06   1.9922020169791013e-06   2.2480844849574621e-06   2.0040742746964920e-06   2.0242218648707979e-06   1.7430484746813245e-06   2.0106467929848310e-06   1.7150177238241913e-06   1.9802971754041515e-06   1.6764278123954793e-06   1.9334131645590247e-06   1.6278035508446933e-06   1.8712838087620678e-06   1.5704778102930073e-06   1.7960154630627572e-06   1.5063570295651079e-06   1.7103477035596257e-06   1.4377427360127684e-06   1.6174901992453188e-06   1.3671833802373347e-06   1.5209672422323554e-06   1.2973428892818552e-06   1.4244646453507894e-06   1.2308796931762810e-06   1.3316784782117711e-06   1.1703343476079073e-06   1.2461678420482498e-06   1.1180263488664652e-06   1.1712153263177574e-06   1.0759620087129360e-06   1.1096993971000094e-06   1.0457557606779104e-06   1.0639830127639986e-06   1.0285672773281528e-06   1.0358224169159841e-06   1.0250564623523998e-06   1.0262994342629293e-06   1.0353578542429156e-06   1.0357797711704231e-06   1.0590753171352179e-06   1.0638988610700180e-06   1.0952971555567697e-06   1.1095757470210817e-06   1.1426310170669591e-06   1.1710544040471508e-06   1.1992571740123914e-06   1.2459708092175497e-06   1.2629980271561960e-06   1.3314429939291645e-06   1.3314009612712772e-06   1.4241802691207007e-06   1.4018309979078956e-06   1.5206067800642825e-06   1.4715689938290787e-06   1.6169934553326214e-06   1.5379103332137867e-06   1.7095911199357700e-06   1.5982579793058904e-06   1.7947557786764893e-06   1.6502020662964276e-06   1.8690543887245790e-06   1.6915753759447049e-06   1.9293351084320497e-06   1.7204691565040170e-06   1.9727389852375708e-06   1.7351854319468309e-06   1.9966190489810477e-06   1.7340884218608420e-06   1.7555433618839539e-06   1.4603878497899752e-06   1.7548013133410241e-06   1.4403194413273680e-06   1.7474176415971067e-06   1.4202433600714289e-06   1.7326728117127260e-06   1.3999407380117006e-06   1.7105790850341359e-06   1.3796385491337394e-06   1.6816819907757560e-06   1.3598109689844311e-06   1.6469273220814131e-06   1.3410522895315788e-06   1.6075620527591055e-06   1.3239923532128582e-06   1.5650516431982905e-06   1.3092377352788382e-06   1.5210046393020582e-06   1.2973292335609627e-06   1.4771004850630976e-06   1.2887105468187831e-06   1.4350194001048149e-06   1.2837054970363369e-06   1.3963748343980590e-06   1.2825025040594494e-06   1.3626498936768688e-06   1.2851457027293574e-06   1.3351395226076330e-06   1.2915323789929117e-06   1.3149003121109598e-06   1.3014164599847201e-06   1.3027096670713986e-06   1.3144177253125144e-06   1.2990357963640948e-06   1.3300362742964010e-06   1.3040196118201860e-06   1.3476716240445455e-06   1.3174691767340962e-06   1.3666456479324436e-06   1.3388668494980837e-06   1.3862284041993074e-06   1.3673887378454172e-06   1.4056657507912291e-06   1.4019355176975402e-06   1.4242074838784371e-06   1.4411730652811784e-06   1.4411345441721637e-06   1.4835806623757919e-06   1.4557835483609344e-06   1.5275036768291665e-06   1.4675664142611408e-06   1.5712064322779966e-06   1.4759819657091551e-06   1.6129191773891530e-06   1.4806147959301911e-06   1.6508701685531760e-06   1.4811137809579876e-06   1.6832891338537356e-06   1.4771375723279048e-06   1.7083606961059475e-06   1.4682458235388636e-06   1.7240944318416098e-06   1.4537011716902737e-06   1.4756216843999759e-06   1.1773110612558481e-06   1.4882709888844928e-06   1.1654535837750790e-06   1.5046246365557027e-06   1.1641593583532707e-06   1.5230154962882313e-06   1.1724963021337701e-06   1.5421637219341281e-06   1.1895959793021332e-06   1.5610201046270979e-06   1.2144982465857635e-06   1.5786901938320654e-06   1.2460801610711513e-06   1.5944036990067116e-06   1.2830379605734166e-06   1.6075081249872200e-06   1.3239028827733267e-06   1.6174741326310435e-06   1.3670785983774776e-06   1.6239051796451728e-06   1.4108921242017776e-06   1.6265470062593467e-06   1.4536524464615612e-06   1.6252943427615304e-06   1.4937124552997833e-06   1.6201933389388195e-06   1.5295306160507843e-06   1.6114389451688269e-06   1.5597293492659822e-06   1.5993669795863620e-06   1.5831475163687292e-06   1.5844409879973717e-06   1.5988847975135437e-06   1.5672342913632151e-06   1.6063361462841186e-06   1.5484078424755700e-06   1.6052149289324878e-06   1.5286846866296691e-06   1.5955638033883450e-06   1.5088219388747121e-06   1.5777528526599524e-06   1.4895812431934055e-06   1.5524649357758232e-06   1.4716986479484271e-06   1.5206686230851822e-06   1.4558546840221811e-06   1.4835793914851665e-06   1.4426451095628547e-06   1.4426098926466019e-06   1.4325521877234279e-06   1.3993099522231610e-06   1.4259153180442010e-06   1.3552963117239242e-06   1.4228980547127245e-06   1.3121706585807777e-06   1.4234455326525743e-06   1.2714216652281298e-06   1.4272213266325908e-06   1.2343017210793276e-06   1.4335047091496245e-06   1.2016605458548299e-06   1.4410169847744033e-06   1.1737044881479068e-06   1.1952345346987608e-06   9.0470740315701107e-07   1.2213185644410260e-06   9.0099329789818682e-07   1.2612693397286982e-06   9.1802746894350370e-07   1.3125200710831121e-06   9.5422220151244887e-07   1.3725328669318870e-06   1.0076660496730923e-06   1.4386910485776960e-06   1.0760175009854122e-06   1.5082841402002992e-06   1.1564922887714292e-06   1.5785475142810896e-06   1.2459122859518469e-06   1.6467329609026974e-06   1.3407950900504801e-06   1.7101947647610140e-06   1.4374698049820080e-06   1.7664807835483613e-06   1.5322082087230888e-06   1.8134209906889033e-06   1.6213626456125664e-06   1.8492078392822781e-06   1.7015033071558642e-06   1.8724641279075381e-06   1.7695484922844729e-06   1.8822950901525845e-06   1.8228822169633397e-06   1.8783223439567150e-06   1.8594543123346293e-06   1.8606982003582179e-06   1.8778589784028623e-06   1.8300996731356024e-06   1.8773886702795759e-06   1.7877023523542736e-06   1.8580611816158384e-06   1.7351350907944806e-06   1.8206188320403919e-06   1.6744171773283150e-06   1.7664997265958890e-06   1.6078803028386077e-06   1.6977820898615075e-06   1.5380781216920817e-06   1.6171036302664240e-06   1.4676865226230757e-06   1.5275586921229120e-06   1.3993977735393694e-06   1.4325765130580542e-06   1.3358113835297108e-06   1.3357840928743642e-06   1.2793236536853773e-06   1.2408567984336017e-06   1.2320161751105680e-06   1.1513585640024464e-06   1.1955405073796293e-06   1.0705708958734362e-06   1.1709912049232565e-06   1.0013050742601662e-06   1.1587512352513857e-06   9.4568385638280520e-07   1.1582816479914091e-06   9.0486646565816304e-07   9.2516803704437525e-07   6.5305859618511226e-07   9.6421357436318562e-07   6.5710696083759242e-07   1.0267148795165441e-06   6.9131193341520542e-07   1.1092876944890037e-06   7.5351278703007748e-07   1.2082182946894878e-06   8.4084743048781978e-07   1.3194099317082993e-06   9.4969893013769306e-07   1.4384300529951106e-06   1.0757413809807730e-06   1.5606192220510553e-06   1.2140535000970219e-06   1.6812362566325307e-06   1.3592782663730316e-06   1.7956218709100545e-06   1.5058124432285858e-06   1.8993676710671959e-06   1.6480129367479007e-06   1.9884801672118419e-06   1.7804087800818581e-06   2.0595313682924807e-06   1.8979087532358787e-06   2.1097890033083570e-06   1.9959956332957638e-06   2.1373207284910009e-06   2.0708990449285055e-06   2.1410679724292585e-06   2.1197399597517570e-06   2.1208863958802207e-06   2.1406411229126350e-06   2.0775513086459962e-06   2.1327990689642239e-06   2.0127277719240179e-06   2.0965149011873140e-06   1.9289064832852199e-06   2.0331826043438893e-06   1.8293078450351353e-06   1.9452352832105531e-06   1.7177578006066964e-06   1.8360513016540644e-06   1.5985400271294047e-06   1.7098237646907515e-06   1.4762298256397481e-06   1.5713980536500812e-06   1.3555154668660653e-06   1.4260830896911450e-06   1.2410127113678259e-06   1.2794425297099279e-06   1.1370775508133991e-06   1.1370720009886833e-06   1.0476206344173510e-06   1.0043674689831524e-06   9.7592391138187005e-07   8.8628745975563515e-07   9.2445506586321652e-07   7.8710744700880159e-07   8.9466743303284689e-07   7.1015733531150221e-07   8.8676146873934765e-07   6.5752179535625679e-07   6.7580653727335537e-07   4.3203829920128485e-07   7.2684204753263309e-07   4.4316970140092064e-07   8.0998093885852630e-07   4.9272817205376582e-07   9.2113491677822357e-07   5.7808453327442261e-07   1.0555416997101567e-06   6.9555488007192853e-07   1.2077686683687168e-06   8.4040176333043959e-07   1.3718212686845504e-06   1.0069365204117190e-06   1.5413175620854495e-06   1.1886928650681152e-06   1.7097026940426387e-06   1.3786501766798070e-06   1.8704839659401810e-06   1.5694893215671255e-06   2.0174712323839990e-06   1.7538662479887588e-06   2.1450098945128301e-06   1.9246900390982270e-06   2.2481956022898181e-06   2.0753931623527812e-06   2.3230613547179511e-06   2.2001826527115020e-06   2.3667292317579492e-06   2.2942620935638527e-06   2.3775206162091612e-06   2.3540156006906559e-06   2.3550205021436292e-06   2.3771465946668181e-06   2.3000933257663230e-06   2.3627659481692560e-06   2.2148496531827456e-06   2.3114260709470399e-06   2.1025649587127623e-06   2.2250995824075351e-06   1.9675535584527466e-06   2.1071033431900459e-06   1.8150024524499829e-06   1.9619706877556496e-06   1.6507712966408236e-06   1.7952766285510435e-06   1.4811658882653799e-06   1.6134224902164429e-06   1.3126933094286932e-06   1.4233877693122684e-06   1.1518071115200653e-06   1.2324578682945776e-06   1.0046504690484258e-06   1.0479365464681290e-06   8.7680383064433027e-07   8.7685121385810534e-07   7.7304085468111404e-07   7.2565719040120777e-07   6.9709174940042900e-07   5.9994321078364122e-07   6.5140577078296209e-07   5.0413406201729680e-07   6.3689401968699507e-07   4.4117683359457143e-07   4.5673587534505477e-07   2.5014159864263560e-07   5.1832894328706099e-07   2.6740433100070321e-07   6.1939955169306037e-07   3.2990909551282521e-07   7.5529577365950622e-07   4.3468079798600708e-07   9.2037427365180272e-07   5.7737410275434313e-07   1.1080620460668586e-06   7.5232898132123976e-07   1.3110226000711288e-06   9.5272523402175462e-07   1.5213899682155648e-06   1.1708090679977540e-06   1.7310445986744885e-06   1.3981711848500353e-06   1.9319109742922648e-06   1.6260589104973763e-06   2.1162601513490745e-06   1.8457064898349980e-06   2.2770025955094579e-06   2.0486686461475306e-06   2.4079584045724854e-06   2.2271433445145597e-06   2.5040936258727340e-06   2.3742706637060412e-06   2.56171309