<?xml version="1.0"?>
<VTKFile type="UnstructuredGrid"  version="0.1"  >
<UnstructuredGrid>
<Piece  NumberOfPoints="1089" NumberOfCells="2048">
<Points>
<DataArray  type="Float64"  NumberOfComponents="3"  format="ascii">0 0 0  0.03125 0 0  0.0625 0 0  0.09375 0 0  0.125 0 0  0.15625 0 0  0.1875 0 0  0.21875 0 0  0.25 0 0  0.28125 0 0  0.3125 0 0  0.34375 0 0  0.375 0 0  0.40625 0 0  0.4375 0 0  0.46875 0 0  0.5 0 0  0.53125 0 0  0.5625 0 0  0.59375 0 0  0.625 0 0  0.65625 0 0  0.6875 0 0  0.71875 0 0  0.75 0 0  0.78125 0 0  0.8125 0 0  0.84375 0 0  0.875 0 0  0.90625 0 0  0.9375 0 0  0.96875 0 0  1 0 0  0 0.03125 0  0.03125 0.03125 0  0.0625 0.03125 0  0.09375 0.03125 0  0.125 0.03125 0  0.15625 0.03125 0  0.1875 0.03125 0  0.21875 0.03125 0  0.25 0.03125 0  0.28125 0.03125 0  0.3125 0.03125 0  0.34375 0.03125 0  0.375 0.03125 0  0.40625 0.03125 0  0.4375 0.03125 0  0.46875 0.03125 0  0.5 0.03125 0  0.53125 0.03125 0  0.5625 0.03125 0  0.59375 0.03125 0  0.625 0.03125 0  0.65625 0.03125 0  0.6875 0.03125 0  0.71875 0.03125 0  0.75 0.03125 0  0.78125 0.03125 0  0.8125 0.03125 0  0.84375 0.03125 0  0.875 0.03125 0  0.90625 0.03125 0  0.9375 0.03125 0  0.96875 0.03125 0  1 0.03125 0  0 0.0625 0  0.03125 0.0625 0  0.0625 0.0625 0  0.09375 0.0625 0  0.125 0.0625 0  0.15625 0.0625 0  0.1875 0.0625 0  0.21875 0.0625 0  0.25 0.0625 0  0.28125 0.0625 0  0.3125 0.0625 0  0.34375 0.0625 0  0.375 0.0625 0  0.40625 0.0625 0  0.4375 0.0625 0  0.46875 0.0625 0  0.5 0.0625 0  0.53125 0.0625 0  0.5625 0.0625 0  0.59375 0.0625 0  0.625 0.0625 0  0.65625 0.0625 0  0.6875 0.0625 0  0.71875 0.0625 0  0.75 0.0625 0  0.78125 0.0625 0  0.8125 0.0625 0  0.84375 0.0625 0  0.875 0.0625 0  0.90625 0.0625 0  0.9375 0.0625 0  0.96875 0.0625 0  1 0.0625 0  0 0.09375 0  0.03125 0.09375 0  0.0625 0.09375 0  0.09375 0.09375 0  0.125 0.09375 0  0.15625 0.09375 0  0.1875 0.09375 0  0.21875 0.09375 0  0.25 0.09375 0  0.28125 0.09375 0  0.3125 0.09375 0  0.34375 0.09375 0  0.375 0.09375 0  0.40625 0.09375 0  0.4375 0.09375 0  0.46875 0.09375 0  0.5 0.09375 0  0.53125 0.09375 0  0.5625 0.09375 0  0.59375 0.09375 0  0.625 0.09375 0  0.65625 0.09375 0  0.6875 0.09375 0  0.71875 0.09375 0  0.75 0.09375 0  0.78125 0.09375 0  0.8125 0.09375 0  0.84375 0.09375 0  0.875 0.09375 0  0.90625 0.09375 0  0.9375 0.09375 0  0.96875 0.09375 0  1 0.09375 0  0 0.125 0  0.03125 0.125 0  0.0625 0.125 0  0.09375 0.125 0  0.125 0.125 0  0.15625 0.125 0  0.1875 0.125 0  0.21875 0.125 0  0.25 0.125 0  0.28125 0.125 0  0.3125 0.125 0  0.34375 0.125 0  0.375 0.125 0  0.40625 0.125 0  0.4375 0.125 0  0.46875 0.125 0  0.5 0.125 0  0.53125 0.125 0  0.5625 0.125 0  0.59375 0.125 0  0.625 0.125 0  0.65625 0.125 0  0.6875 0.125 0  0.71875 0.125 0  0.75 0.125 0  0.78125 0.125 0  0.8125 0.125 0  0.84375 0.125 0  0.875 0.125 0  0.90625 0.125 0  0.9375 0.125 0  0.96875 0.125 0  1 0.125 0  0 0.15625 0  0.03125 0.15625 0  0.0625 0.15625 0  0.09375 0.15625 0  0.125 0.15625 0  0.15625 0.15625 0  0.1875 0.15625 0  0.21875 0.15625 0  0.25 0.15625 0  0.28125 0.15625 0  0.3125 0.15625 0  0.34375 0.15625 0  0.375 0.15625 0  0.40625 0.15625 0  0.4375 0.15625 0  0.46875 0.15625 0  0.5 0.15625 0  0.53125 0.15625 0  0.5625 0.15625 0  0.59375 0.15625 0  0.625 0.15625 0  0.65625 0.15625 0  0.6875 0.15625 0  0.71875 0.15625 0  0.75 0.15625 0  0.78125 0.15625 0  0.8125 0.15625 0  0.84375 0.15625 0  0.875 0.15625 0  0.90625 0.15625 0  0.9375 0.15625 0  0.96875 0.15625 0  1 0.15625 0  0 0.1875 0  0.03125 0.1875 0  0.0625 0.1875 0  0.09375 0.1875 0  0.125 0.1875 0  0.15625 0.1875 0  0.1875 0.1875 0  0.21875 0.1875 0  0.25 0.1875 0  0.28125 0.1875 0  0.3125 0.1875 0  0.34375 0.1875 0  0.375 0.1875 0  0.40625 0.1875 0  0.4375 0.1875 0  0.46875 0.1875 0  0.5 0.1875 0  0.53125 0.1875 0  0.5625 0.1875 0  0.59375 0.1875 0  0.625 0.1875 0  0.65625 0.1875 0  0.6875 0.1875 0  0.71875 0.1875 0  0.75 0.1875 0  0.78125 0.1875 0  0.8125 0.1875 0  0.84375 0.1875 0  0.875 0.1875 0  0.90625 0.1875 0  0.9375 0.1875 0  0.96875 0.1875 0  1 0.1875 0  0 0.21875 0  0.03125 0.21875 0  0.0625 0.21875 0  0.09375 0.21875 0  0.125 0.21875 0  0.15625 0.21875 0  0.1875 0.21875 0  0.21875 0.21875 0  0.25 0.21875 0  0.28125 0.21875 0  0.3125 0.21875 0  0.34375 0.21875 0  0.375 0.21875 0  0.40625 0.21875 0  0.4375 0.21875 0  0.46875 0.21875 0  0.5 0.21875 0  0.53125 0.21875 0  0.5625 0.21875 0  0.59375 0.21875 0  0.625 0.21875 0  0.65625 0.21875 0  0.6875 0.21875 0  0.71875 0.21875 0  0.75 0.21875 0  0.78125 0.21875 0  0.8125 0.21875 0  0.84375 0.21875 0  0.875 0.21875 0  0.90625 0.21875 0  0.9375 0.21875 0  0.96875 0.21875 0  1 0.21875 0  0 0.25 0  0.03125 0.25 0  0.0625 0.25 0  0.09375 0.25 0  0.125 0.25 0  0.15625 0.25 0  0.1875 0.25 0  0.21875 0.25 0  0.25 0.25 0  0.28125 0.25 0  0.3125 0.25 0  0.34375 0.25 0  0.375 0.25 0  0.40625 0.25 0  0.4375 0.25 0  0.46875 0.25 0  0.5 0.25 0  0.53125 0.25 0  0.5625 0.25 0  0.59375 0.25 0  0.625 0.25 0  0.65625 0.25 0  0.6875 0.25 0  0.71875 0.25 0  0.75 0.25 0  0.78125 0.25 0  0.8125 0.25 0  0.84375 0.25 0  0.875 0.25 0  0.90625 0.25 0  0.9375 0.25 0  0.96875 0.25 0  1 0.25 0  0 0.28125 0  0.03125 0.28125 0  0.0625 0.28125 0  0.09375 0.28125 0  0.125 0.28125 0  0.15625 0.28125 0  0.1875 0.28125 0  0.21875 0.28125 0  0.25 0.28125 0  0.28125 0.28125 0  0.3125 0.28125 0  0.34375 0.28125 0  0.375 0.28125 0  0.40625 0.28125 0  0.4375 0.28125 0  0.46875 0.28125 0  0.5 0.28125 0  0.53125 0.28125 0  0.5625 0.28125 0  0.59375 0.28125 0  0.625 0.28125 0  0.65625 0.28125 0  0.6875 0.28125 0  0.71875 0.28125 0  0.75 0.28125 0  0.78125 0.28125 0  0.8125 0.28125 0  0.84375 0.28125 0  0.875 0.28125 0  0.90625 0.28125 0  0.9375 0.28125 0  0.96875 0.28125 0  1 0.28125 0  0 0.3125 0  0.03125 0.3125 0  0.0625 0.3125 0  0.09375 0.3125 0  0.125 0.3125 0  0.15625 0.3125 0  0.1875 0.3125 0  0.21875 0.3125 0  0.25 0.3125 0  0.28125 0.3125 0  0.3125 0.3125 0  0.34375 0.3125 0  0.375 0.3125 0  0.40625 0.3125 0  0.4375 0.3125 0  0.46875 0.3125 0  0.5 0.3125 0  0.53125 0.3125 0  0.5625 0.3125 0  0.59375 0.3125 0  0.625 0.3125 0  0.65625 0.3125 0  0.6875 0.3125 0  0.71875 0.3125 0  0.75 0.3125 0  0.78125 0.3125 0  0.8125 0.3125 0  0.84375 0.3125 0  0.875 0.3125 0  0.90625 0.3125 0  0.9375 0.3125 0  0.96875 0.3125 0  1 0.3125 0  0 0.34375 0  0.03125 0.34375 0  0.0625 0.34375 0  0.09375 0.34375 0  0.125 0.34375 0  0.15625 0.34375 0  0.1875 0.34375 0  0.21875 0.34375 0  0.25 0.34375 0  0.28125 0.34375 0  0.3125 0.34375 0  0.34375 0.34375 0  0.375 0.34375 0  0.40625 0.34375 0  0.4375 0.34375 0  0.46875 0.34375 0  0.5 0.34375 0  0.53125 0.34375 0  0.5625 0.34375 0  0.59375 0.34375 0  0.625 0.34375 0  0.65625 0.34375 0  0.6875 0.34375 0  0.71875 0.34375 0  0.75 0.34375 0  0.78125 0.34375 0  0.8125 0.34375 0  0.84375 0.34375 0  0.875 0.34375 0  0.90625 0.34375 0  0.9375 0.34375 0  0.96875 0.34375 0  1 0.34375 0  0 0.375 0  0.03125 0.375 0  0.0625 0.375 0  0.09375 0.375 0  0.125 0.375 0  0.15625 0.375 0  0.1875 0.375 0  0.21875 0.375 0  0.25 0.375 0  0.28125 0.375 0  0.3125 0.375 0  0.34375 0.375 0  0.375 0.375 0  0.40625 0.375 0  0.4375 0.375 0  0.46875 0.375 0  0.5 0.375 0  0.53125 0.375 0  0.5625 0.375 0  0.59375 0.375 0  0.625 0.375 0  0.65625 0.375 0  0.6875 0.375 0  0.71875 0.375 0  0.75 0.375 0  0.78125 0.375 0  0.8125 0.375 0  0.84375 0.375 0  0.875 0.375 0  0.90625 0.375 0  0.9375 0.375 0  0.96875 0.375 0  1 0.375 0  0 0.40625 0  0.03125 0.40625 0  0.0625 0.40625 0  0.09375 0.40625 0  0.125 0.40625 0  0.15625 0.40625 0  0.1875 0.40625 0  0.21875 0.40625 0  0.25 0.40625 0  0.28125 0.40625 0  0.3125 0.40625 0  0.34375 0.40625 0  0.375 0.40625 0  0.40625 0.40625 0  0.4375 0.40625 0  0.46875 0.40625 0  0.5 0.40625 0  0.53125 0.40625 0  0.5625 0.40625 0  0.59375 0.40625 0  0.625 0.40625 0  0.65625 0.40625 0  0.6875 0.40625 0  0.71875 0.40625 0  0.75 0.40625 0  0.78125 0.40625 0  0.8125 0.40625 0  0.84375 0.40625 0  0.875 0.40625 0  0.90625 0.40625 0  0.9375 0.40625 0  0.96875 0.40625 0  1 0.40625 0  0 0.4375 0  0.03125 0.4375 0  0.0625 0.4375 0  0.09375 0.4375 0  0.125 0.4375 0  0.15625 0.4375 0  0.1875 0.4375 0  0.21875 0.4375 0  0.25 0.4375 0  0.28125 0.4375 0  0.3125 0.4375 0  0.34375 0.4375 0  0.375 0.4375 0  0.40625 0.4375 0  0.4375 0.4375 0  0.46875 0.4375 0  0.5 0.4375 0  0.53125 0.4375 0  0.5625 0.4375 0  0.59375 0.4375 0  0.625 0.4375 0  0.65625 0.4375 0  0.6875 0.4375 0  0.71875 0.4375 0  0.75 0.4375 0  0.78125 0.4375 0  0.8125 0.4375 0  0.84375 0.4375 0  0.875 0.4375 0  0.90625 0.4375 0  0.9375 0.4375 0  0.96875 0.4375 0  1 0.4375 0  0 0.46875 0  0.03125 0.46875 0  0.0625 0.46875 0  0.09375 0.46875 0  0.125 0.46875 0  0.15625 0.46875 0  0.1875 0.46875 0  0.21875 0.46875 0  0.25 0.46875 0  0.28125 0.46875 0  0.3125 0.46875 0  0.34375 0.46875 0  0.375 0.46875 0  0.40625 0.46875 0  0.4375 0.46875 0  0.46875 0.46875 0  0.5 0.46875 0  0.53125 0.46875 0  0.5625 0.46875 0  0.59375 0.46875 0  0.625 0.46875 0  0.65625 0.46875 0  0.6875 0.46875 0  0.71875 0.46875 0  0.75 0.46875 0  0.78125 0.46875 0  0.8125 0.46875 0  0.84375 0.46875 0  0.875 0.46875 0  0.90625 0.46875 0  0.9375 0.46875 0  0.96875 0.46875 0  1 0.46875 0  0 0.5 0  0.03125 0.5 0  0.0625 0.5 0  0.09375 0.5 0  0.125 0.5 0  0.15625 0.5 0  0.1875 0.5 0  0.21875 0.5 0  0.25 0.5 0  0.28125 0.5 0  0.3125 0.5 0  0.34375 0.5 0  0.375 0.5 0  0.40625 0.5 0  0.4375 0.5 0  0.46875 0.5 0  0.5 0.5 0  0.53125 0.5 0  0.5625 0.5 0  0.59375 0.5 0  0.625 0.5 0  0.65625 0.5 0  0.6875 0.5 0  0.71875 0.5 0  0.75 0.5 0  0.78125 0.5 0  0.8125 0.5 0  0.84375 0.5 0  0.875 0.5 0  0.90625 0.5 0  0.9375 0.5 0  0.96875 0.5 0  1 0.5 0  0 0.53125 0  0.03125 0.53125 0  0.0625 0.53125 0  0.09375 0.53125 0  0.125 0.53125 0  0.15625 0.53125 0  0.1875 0.53125 0  0.21875 0.53125 0  0.25 0.53125 0  0.28125 0.53125 0  0.3125 0.53125 0  0.34375 0.53125 0  0.375 0.53125 0  0.40625 0.53125 0  0.4375 0.53125 0  0.46875 0.53125 0  0.5 0.53125 0  0.53125 0.53125 0  0.5625 0.53125 0  0.59375 0.53125 0  0.625 0.53125 0  0.65625 0.53125 0  0.6875 0.53125 0  0.71875 0.53125 0  0.75 0.53125 0  0.78125 0.531
[...]
<CellData  Scalars="f_40563"> 
<DataArray  type="Float64"  Name="f_40563"  format="ascii">1.7245519344458918e-08   1.7083358531468076e-08   4.0805957186826290e-08   5.3740834252141033e-08   7.5000365486382700e-08   1.1122100624355437e-07   1.1849791995939035e-07   1.8865477979078902e-07   1.6961757296456026e-07   2.8302782043965657e-07   2.2639013572577737e-07   3.9069047603197940e-07   2.8663219190751128e-07   5.0749324341849469e-07   3.4802883211558519e-07   6.2894267588051206e-07   4.0822184115383245e-07   7.5037149425508586e-07   4.6489982141505109e-07   8.6711612094378439e-07   5.1588670027674498e-07   9.7469461712959310e-07   5.5922515806416610e-07   1.0689780329328448e-06   5.9325172729993840e-07   1.1463484715106411e-06   6.1666064755683198e-07   1.2038377092653057e-06   6.2855400192383714e-07   1.2392409851270503e-06   6.2847619503018544e-07   1.2512015438548851e-06   6.1643143915553923e-07   1.2392626554529563e-06   5.9288357157082046e-07   1.2038850927405115e-06   5.5873820833638489e-07   1.1464293845542298e-06   5.1530792163798014e-07   1.0691035228058268e-06   4.6426178378549104e-07   9.7487813635083053e-07   4.0756122663851231e-07   8.6737240321703663e-07   3.4738469804853660e-07   7.5071510809100080e-07   2.8604403750047669e-07   6.2938622218809812e-07   2.2589582603919955e-07   5.0804515272750214e-07   1.6925117978072999e-07   3.9135235282112510e-07   1.1828754513296003e-07   2.8379128307668403e-07   7.4966011911011991e-08   1.8949776729971922e-07   4.0957467787315630e-08   1.1210358846007427e-07   1.7580457969313022e-08   5.4600727587747059e-08   5.7521246774525273e-09   1.9231911967886243e-08   4.3819923982711040e-09   7.4119098688488114e-09   8.6986689461241687e-08   7.3470390660052827e-08   1.4411614062923279e-07   1.4381974764349298e-07   2.2052384834380170e-07   2.2023558291484776e-07   3.1325094418722129e-07   3.1299897212927945e-07   4.1872230138829104e-07   4.1853441669977458e-07   5.3288091581426773e-07   5.3278391212060954e-07   6.5134117166884789e-07   6.5135965528161399e-07   7.6955535568829130e-07   7.6971049053124568e-07   8.8298698395451461e-07   8.8329532454807972e-07   9.8728414566872090e-07   9.8775666798497028e-07   1.0784460757801284e-06   1.0790874781287201e-06   1.1529764571448437e-06   1.1537847726737983e-06   1.2080174896070816e-06   1.2089840282568139e-06   1.2414595236960456e-06   1.2425691425694978e-06   1.2520220115879319e-06   1.2532536971936902e-06   1.2393026420450581e-06   1.2406303748389517e-06   1.2037927576602790e-06   1.2051866183021772e-06   1.1468584556933915e-06   1.1482859232177719e-06   1.0706880991377626e-06   1.0721154835926364e-06   9.7820826244799903e-07   9.7960220831025533e-07   8.7297135789199993e-07   8.7430034933707267e-07   7.5901928810605090e-07   7.6025508245181305e-07   6.4072840764617135e-07   6.4184731805979847e-07   5.2264181744755405e-07   5.2362575888919243e-07   4.0929553591705207e-07   4.1013273710111330e-07   3.0504537333515425e-07   3.0573063902205003e-07   2.1390137706131618e-07   2.1443575493546897e-07   1.3937651774215744e-07   1.3976617817469863e-07   8.4355858665455228e-08   8.4609937321489169e-08   5.0991785066552330e-08   5.1118916658049675e-08   4.0630034555029560e-08   4.0633506359674555e-08   4.0032734710238787e-08   5.3644109762203721e-08   2.1011953436729194e-07   1.7303690639045950e-07   2.8619428973759051e-07   2.8589886796622679e-07   3.7728797887361028e-07   3.7703416042007343e-07   4.7990620793579143e-07   4.7970679965919347e-07   5.9011660785821608e-07   5.8998508326039578e-07   7.0369671260628233e-07   7.0364696093767353e-07   8.1629482632362979e-07   8.1634010834010388e-07   9.2359644199532983e-07   9.2374823964192976e-07   1.0214895884923737e-06   1.0217565679195923e-06   1.1062226248215025e-06   1.1066098090776001e-06   1.1745483288459451e-06   1.1750565242674509e-06   1.2238486826283589e-06   1.2244741760482819e-06   1.2522355199873351e-06   1.2529700466876725e-06   1.2586231450106211e-06   1.2594541149292313e-06   1.2427701182057049e-06   1.2436810782468303e-06   1.2052885994397024e-06   1.2062599017735434e-06   1.1476208893018560e-06   1.1486305287930266e-06   1.0719840760130684e-06   1.0730086540717871e-06   9.8128492592038863e-07   9.8230069289324714e-07   8.7900830562777437e-07   8.7999222901154434e-07   7.6908344987534732e-07   7.7001425067797413e-07   6.5573325333698227e-07   6.5659234700509434e-07   5.4331243517462988e-07   5.4408470543764700e-07   4.3614087908504364e-07   4.3681520091386138e-07   3.3833867441308686e-07   3.3890808323100546e-07   2.5366937098905820e-07   2.5413074527376101e-07   1.8539771616543893e-07   1.8575079471783186e-07   1.3616767906636821e-07   1.3641316890154396e-07   1.0790590428629053e-07   1.0804235546233542e-07   1.0175495110895327e-07   1.0177399214046185e-07   1.1804032038733144e-07   1.1791953850836475e-07   1.1873465214257022e-07   1.5596836713113589e-07   3.8341410105077800e-07   3.1202880509015933e-07   4.7486374922915979e-07   4.7461000906301477e-07   5.7586940475626399e-07   5.7567409720527939e-07   6.8258118292783117e-07   6.8244494571349323e-07   7.9092864427700419e-07   7.9085499944166198e-07   8.9677498684871996e-07   8.9676928546907044e-07   9.9607554432608597e-07   9.9614377174023431e-07   1.0850333877077260e-06   1.0851810176782517e-06   1.1602456392205996e-06   1.1604766580400591e-06   1.2188347008353208e-06   1.2191508594334740e-06   1.2585592789227928e-06   1.2589595901134411e-06   1.2779009066862764e-06   1.2783813841175673e-06   1.2761226293912574e-06   1.2766762538048957e-06   1.2532975987675409e-06   1.2539144904431344e-06   1.2103064855811542e-06   1.2109742570243929e-06   1.1488038212553863e-06   1.1495080801877292e-06   1.0711545759694615e-06   1.0718795450695324e-06   9.8034342711643764e-07   9.8107264341695937e-07   8.7986022522756987e-07   8.8057727839011197e-07   7.7356608496457697e-07   7.7425534942295602e-07   6.6554528215814641e-07   6.6619259284091207e-07   5.5994869650037832e-07   5.6054191055656932e-07   4.6083488344446911e-07   4.6136425985267878e-07   3.7201497686831826e-07   3.7247329011054534e-07   2.9690751372847375e-07   2.9728979450760994e-07   2.3840893964205295e-07   2.3871170229080915e-07   1.9878501454411630e-07   1.9900478568113002e-07   1.7958761468633889e-07   1.7971852177835904e-07   1.8160057238509455e-07   1.8163068355594527e-07   2.0481736365393783e-07   2.0472334035686910e-07   2.4845311256826709e-07   2.4819222675421606e-07   2.3894163044609554e-07   3.1049083838681707e-07   6.0027677715845713e-07   4.8514966834916285e-07   7.0293271525274919e-07   7.0275974113490994e-07   8.0868578641737939e-07   8.0857329772449099e-07   9.1352678851671201e-07   9.1346680732003848e-07   1.0134731832463739e-06   1.0134629951113302e-06   1.1047222436692504e-06   1.1047623136783381e-06   1.1837979333882634e-06   1.1838903146492175e-06   1.2476855569163355e-06   1.2478326394432355e-06   1.2939487322806948e-06   1.2941522814815059e-06   1.3208240450321225e-06   1.3210845081845889e-06   1.3272896912336548e-06   1.3276057492672486e-06   1.3131054632544993e-06   1.3134738022108162e-06   1.2788225551309569e-06   1.2792378301954001e-06   1.2257628330163447e-06   1.2262177974182321e-06   1.1559683924872402e-06   1.1564541630853491e-06   1.0721233666614693e-06   1.0726297972018559e-06   9.7745101524820356e-07   9.7796714694405659e-07   8.7559007517750002e-07   8.7610463223871658e-07   7.7045515266196495e-07   7.7095704756277954e-07   6.6608655461900405e-07   6.6656536386377808e-07   5.6649537137970088e-07   5.6694173683238236e-07   4.7550981773324463e-07   4.7591572034255349e-07   3.9662880923745059e-07   3.9698765017400646e-07   3.3288849795802705e-07   3.3319490536079711e-07   2.8674702753865050e-07   2.8699628383666387e-07   2.5999211142423144e-07   2.6017906537179774e-07   2.5367521901786721e-07   2.5379250751746538e-07   2.6807521604108995e-07   2.6811057088877038e-07   3.0269332265958662e-07   3.0262565873782280e-07   3.5628035878322123e-07   3.5607416242554982e-07   4.2689655837250423e-07   4.2649366367310596e-07   3.9606409769404662e-07   5.1131039925213440e-07   8.5241607944801158e-07   6.8577410071529977e-07   9.6167105605861180e-07   9.6161641722529507e-07   1.0668178811251081e-06   1.0668117215616199e-06   1.1638896765178423e-06   1.1639196401096760e-06   1.2492150216360046e-06   1.2492756907632198e-06   1.3195613456346245e-06   1.3196514184851462e-06   1.3722612451630148e-06   1.3723815663463175e-06   1.4053169314706513e-06   1.4054691129232792e-06   1.4174787374263776e-06   1.4176641983079447e-06   1.4082946182802073e-06   1.4085139439080109e-06   1.3781287355417796e-06   1.3783812882129785e-06   1.3281484301639529e-06   1.3284321622453578e-06   1.2602801202221985e-06   1.2605915501462583e-06   1.1771358570502869e-06   1.1774701751663796e-06   1.0819134008814810e-06   1.0822646758731284e-06   9.7827369225867421e-07   9.7863515070854652e-07   8.7020046173418331e-07   8.7056481378161969e-07   7.6184740562084727e-07   7.6220718864800912e-07   6.5737883426539335e-07   6.5772674417873369e-07   5.6080995383393813e-07   5.6113912954842172e-07   4.7585296382444577e-07   4.7615718461510130e-07   4.0577494050376272e-07   4.0604868730206880e-07   3.5327304027429415e-07   3.5351135996800074e-07   3.2037191459324611e-07   3.2057000996814193e-07   3.0834740584238881e-07   3.0849985201281739e-07   3.1767962606956802e-07   3.1777908589549768e-07   3.4803745168008879e-07   3.4807272527699068e-07   3.9829535349369828e-07   3.9824854255446349e-07   4.6658239521377512e-07   4.6642486898900011e-07   5.5036223889598656e-07   5.5004891475056395e-07   6.4654201935334195e-07   6.4600322081907755e-07   5.8409168159974501e-07   7.5073656850422638e-07   1.1301686454046260e-06   9.0620812350958257e-07   1.2411548048293723e-06   1.2412536643233600e-06   1.3403599525762419e-06   1.3404819735737548e-06   1.4240588884376177e-06   1.4241917887766133e-06   1.4891025205287488e-06   1.4892416260286520e-06   1.5330427925857150e-06   1.5331878039442197e-06   1.5542300021460836e-06   1.5543828147176652e-06   1.5518788894699613e-06   1.5520421595893235e-06   1.5261010425471378e-06   1.5262772655112190e-06   1.4779024218741861e-06   1.4780933675773703e-06   1.4091461490148451e-06   1.4093525522798930e-06   1.3224820426381276e-06   1.3227034780231034e-06   1.2212456652276280e-06   1.2214805566705603e-06   1.1093308131426886e-06   1.1095765415431466e-06   9.9104039881955279e-07   9.9129347828420835e-07   8.7092149927557397e-07   8.7117779689118268e-07   7.5359094929667325e-07   7.5384592493783618e-07   6.4355821845407840e-07   6.4380716078890278e-07   5.4505241518866256e-07   5.4529064793615177e-07   4.6186010518649081e-07   4.6208313375325730e-07   3.9718022173390875e-07   3.9738378434407838e-07   3.5350169913160362e-07   3.5368167799005882e-07   3.3250860233526714e-07   3.3266073860357836e-07   3.3501649111073206e-07   3.3513583170771168e-07   3.6094258711825942e-07   3.6102257046884310e-07   4.0931105644088072e-07   4.0934211633259525e-07   4.7829343366077839e-07   4.7826096114637829e-07   5.6528295758717247e-07   5.6516440142330592e-07   6.6700042155506288e-07   6.6676121294462843e-07   7.7962808577857473e-07   7.7921593653445745e-07   8.9896715877966945e-07   8.9830417300071525e-07   7.9581902010317648e-07   1.0195852367454300e-06   1.4228759113550641e-06   1.1379889000992847e-06   1.5306533981816479e-06   1.5309371728993535e-06   1.6188059356133401e-06   1.6190752987758295e-06   1.6840398082969357e-06   1.6842868831991566e-06   1.7239192101994461e-06   1.7241433269915217e-06   1.7369647850161031e-06   1.7371691222096640e-06   1.7227145003540116e-06   1.7229039023303158e-06   1.6817446223366255e-06   1.6819242384938700e-06   1.6156501319329997e-06   1.6158246084946678e-06   1.5269854519571212e-06   1.5271584921517643e-06   1.4191678598577338e-06   1.4193420276616274e-06   1.2963473821438558e-06   1.2965240663505552e-06   1.1632482438182488e-06   1.1634277267342253e-06   1.0249880298374888e-06   1.0251696223447874e-06   8.8688156346081691e-07   8.8706377871346554e-07   7.5423708619846530e-07   7.5441782998899748e-07   6.3215261409458956e-07   6.3232937241077762e-07   5.2532033459683661e-07   5.2549033890093504e-07   4.3784659806100063e-07   4.3800694681019578e-07   3.7309446034335237e-07   3.7324217132840829e-07   3.3355487140722269e-07   3.3368683345788988e-07   3.2075151320329563e-07   3.2086429733186994e-07   3.3518301122700237e-07   3.3527248976000554e-07   3.7630482882324116e-07   3.7636553562378426e-07   4.4255165836375071e-07   4.4257580246388538e-07   5.3139961024202079e-07   5.3137562663480927e-07   6.3946603282755892e-07   6.3937651353409705e-07   7.6264343570949219e-07   7.6246222503606273e-07   8.9626278438167272e-07   8.9595093875689275e-07   1.0352804018004779e-06   1.0347806174467907e-06   1.1744817873661330e-06   1.1737108678276929e-06   1.0231230672061063e-06   1.3075338412703179e-06   1.7192975745021274e-06   1.3722128291392870e-06   1.8190457715772347e-06   1.8195407642966481e-06   1.8914567044881320e-06   1.8918888411200755e-06   1.9338413050741703e-06   1.9342111443568154e-06   1.9446404660592352e-06   1.9449543076780079e-06   1.9234903955654007e-06   1.9237570647876087e-06   1.8712409942950788e-06   1.8714698678845636e-06   1.7899266564591424e-06   1.7901265210949752e-06   1.6826907866688844e-06   1.6828692404895912e-06   1.5536670849769018e-06   1.5538302849236628e-06   1.4078222898608008e-06   1.4079749116621971e-06   1.2507665272189849e-06   1.2509118507321496e-06   1.0885386393533427e-06   1.0886787030634821e-06   9.2737481418244530e-07   9.2751060261496607e-07   7.7346946451239508e-07   7.7360110436883507e-07   6.3273759555561814e-07   6.3286454294139033e-07   5.1058783471925024e-07   5.1070903861859515e-07   4.1171488348692706e-07   4.1182891067787398e-07   3.3991940301574046e-07   3.4002450750549422e-07   2.9796229186088146e-07   2.9805640786494483e-07   2.8745899694868645e-07   2.8753962834238921e-07   3.0881796881781160e-07   3.0888193953603886e-07   3.6122568911110679e-07   3.6126870753308069e-07   4.4267892857275803e-07   4.4269490354780432e-07   5.5006310770861923e-07   5.5004313303401674e-07   6.7927390144093495e-07   6.7920479697292198e-07   8.2537762310448745e-07   8.2523988104378619e-07   9.8280450442941221e-07   9.8256943535068763e-07   1.1455678045086007e-06   1.1451936094854734e-06   1.3075007532711982e-06   1.3069271806344178e-06   1.4625026245958434e-06   1.4616438779732222e-06   1.2572768431793634e-06   1.6035204183891368e-06   2.0080462617256227e-06   1.5998796960566137e-06   2.0952501421571655e-06   2.0959763275140386e-06   2.1478334222281029e-06   2.1484391258537766e-06   2.1638615968307239e-06   2.1643594266472140e-06   2.1427819000704147e-06   2.1431877126823371e-06   2.0854500032989859e-06   2.0857801027420267e-06   1.9941014964749289e-06   1.9943710729954831e-06   1.8722693773267519e-06   1.8724917320071569e-06   1.7246508953782761e-06   1.7248371521979765e-06   1.5569290302212136e-06   1.5570881382559931e-06   1.3755556034263089e-06   1.3756944992067102e-06   1.1875044717204975e-06   1.1876283190299742e-06   1.0000043758580652e-06   1.0001168321245039e-06   8.2026178305279405e-07   8.2036526184534025e-07   6.5518443123143635e-07   6.5528034250930063e-07   5.1111624585905809e-07   5.1120520201786233e-07   3.9359385553901310e-07   3.9367583378868613e-07   3.0713409781529172e-07   3.0720854911317148e-07   2.5506071356204300e-07   2.5512660589053418e-07   2.3937692302695145e-07   2.3943270249625710e-07   2.6068881721735907e-07   2.6073226422167264e-07   3.1818255312957418e-07   3.1821050227323712e-07   4.0965628608973261e-07   4.0966416718868205e-07   5.3160568758038507e-07   5.3158682979140617e-07   6.7935986432122274e-07   6.7930448498613573e-07   8.4726259406026562e-07   8.4715636640489045e-07   1.0288920997583196e-06   1.0287141572698130e-06   1.2173111604913388e-06   1.2170313496426101e-06   1.4053382531559823e-06   1.4049133926299947e-06   1.5858296613306775e-06   1.5851985180011590e-06   1.7519620401764516e-06   1.7510387649963687e-06   1.4892864058754219e-06   1.8961706810645886e-06   2.2780269858293109e-06   1.8122398948720131e-06   2.3486514262296741e-06   2.3496214804815411e-06   2.3780815717005999e-06   2.3788663033598269e-06   2.3652583865029483e-06   2.3658855580518926e-06   2.3107263640027487e-06   2.3112235380632069e-06   2.2166175957770135e-06   2.2170100209860336e-06   2.0865737776617950e-06   2.0868834355832394e-06   1.9256093029099657e-06   1.9258546373201388e-06   1.7399208746575696e-06   1.7401169099457048e-06   1.5366511092815220e-06   1.5368097725656047e-06   1.3236153483620347e-06   1.3237458784994554e-06   1.1090022852885282e-06   1.1091116583224246e-06   9.0105999571998180e-07   9.0115332673791206e-07   7.0777950336642381e-07   7.0786040368664627e-07   5.3658809305556598e-07   5.3665897252310650e-07   3.9406419809385845e-07   3.9412650758981284e-07   2.8568485260614930e-07   2.8573926345815752e-07   2.1561544357144520e-07   2.1566195952170022e-07   1.8654986968988392e-07   1.8658786408971721e-07   1.9960727762607651e-07   1.9963544382791059e-07   2.5428937531230866e-07   2.5430557175233173e-07   3.4850000086109002e-07   3.4850096374324328e-07   4.7862624430644506e-07   4.7860712951207598e-07   6.3967807052568311e-07   6.3963177155446770e-07   8.2548116678874527e-07   8.2539733613587726e-07   1.0289157240225750e-06   1.0287794003110210e-06   1.2421921346102743e-06   1.2419818462601142e-06   1.4571532162395542e-06   1.4568383948465295e-06   1.6655915997485327e-06   1.6651290957050257e-06   1.8595703777269027e-06   1.8588998374121972e-06   2.0317349510149182e-06   2.0307728701432851e-06   1.7102377971913218e-06   2.1742366352726234e-06   2.5188647450220204e-06   2.0011315665124047e-06   2.5695101559415375e-06   2.5707287820336109e-06   2.5733504606631947e-06   2.5743139047952616e-06   2.5302893281563940e-06   2.5310430237837548e-06   2.4420172196366947e-06   2.4426020995934836e-06   2.3119504882603068e-06   2.3124018226062678e-06   2.1451032392655707e-06   2.1454504714433451e-06   1.9478970398728806e-06   1.9481641450923669e-06   1.7279159437253583e-06   1.7281220384924837e-06   1.4936163765011463e-06   1.4937764177653441e-06   1.2540031440818803e-06   1.2541286233893791e-06   1.0182841042870074e-06   1.0183836854831729e-06   7.9551684293134698e-07   7.9559691900932308e-07   5.9426098591776909e-07   5.9432614657131107e-07   4.2224955015337281e-07   4.2230296002924525e-07   2.8609199555083286e-07   2.8613568662789860e-07   1.9102041604834181e-07   1.9105549771234543e-07   1.4068864605507632e-07   1.4071543434396125e-07   1.3703202361134530e-07   1.3705008736317106e-07   1.8019322108056105e-07   1.8020133752693779e-07   2.6851701818819977e-07   2.6851302380885508e-07   3.9861424864393461e-07   3.9859476251290771e-07   5.6549250273619195e-07   5.6545248862459209e-07   7.6274861681392029e-07   7.6268073631585014e-07   9.8281562533422900e-07   9.8270931656556967e-07   1.2172547831643599e-06   1.2170949776447357e-06   1.4570815643353092e-06   1.4568469285293019e-06   1.6931132726316424e-06   1.6927738313810462e-06   1.9163251057547865e-06   1.9158390755549191e-06   2.1182012233204294e-06   2.1175108627528135e-06   2.2910675109276036e-06   2.2900938744021898e-06   1.9116406023410863e-06   2.4270299428295182e-06   2.7213040255704007e-06   2.1592948419245475e-06   2.7493373763457056e-06   2.7508009538256597e-06   2.7261338208980259e-06   2.7272697058395022e-06   2.6526099308975458e-06   2.6534830870541045e-06   2.5316067639513884e-06   2.5322726384830226e-06   2.3677833689093138e-06   2.3682879259428065e-06   2.1674397573703837e-06   2.1678202635605691e-06   1.9382762991982077e-06   1.9385624169731955e-06   1.6890989042411828e-06   1.6893138621759370e-06   1.4294814144298080e-06   1.4296431291480994e-06   1.1693982587628917e-06   1.1695203442886558e-06   9.1884154990619126e-07   9.1893418783051690e-07   6.8743738436152812e-07   6.8750805004545588e-07   4.8407612710862897e-07   4.8413017878720261e-07   3.16570915