<?xml version="1.0"?>
<VTKFile type="UnstructuredGrid"  version="0.1"  >
<UnstructuredGrid>
<Piece  NumberOfPoints="81" NumberOfCells="128">
<Points>
<DataArray  type="Float64"  NumberOfComponents="3"  format="ascii">0 0 0  0.125 0 0  0.25 0 0  0.375 0 0  0.5 0 0  0.625 0 0  0.75 0 0  0.875 0 0  1 0 0  0 0.125 0  0.125 0.125 0  0.25 0.125 0  0.375 0.125 0  0.5 0.125 0  0.625 0.125 0  0.75 0.125 0  0.875 0.125 0  1 0.125 0  0 0.25 0  0.125 0.25 0  0.25 0.25 0  0.375 0.25 0  0.5 0.25 0  0.625 0.25 0  0.75 0.25 0  0.875 0.25 0  1 0.25 0  0 0.375 0  0.125 0.375 0  0.25 0.375 0  0.375 0.375 0  0.5 0.375 0  0.625 0.375 0  0.75 0.375 0  0.875 0.375 0  1 0.375 0  0 0.5 0  0.125 0.5 0  0.25 0.5 0  0.375 0.5 0  0.5 0.5 0  0.625 0.5 0  0.75 0.5 0  0.875 0.5 0  1 0.5 0  0 0.625 0  0.125 0.625 0  0.25 0.625 0  0.375 0.625 0  0.5 0.625 0  0.625 0.625 0  0.75 0.625 0  0.875 0.625 0  1 0.625 0  0 0.75 0  0.125 0.75 0  0.25 0.75 0  0.375 0.75 0  0.5 0.75 0  0.625 0.75 0  0.75 0.75 0  0.875 0.75 0  1 0.75 0  0 0.875 0  0.125 0.875 0  0.25 0.875 0  0.375 0.875 0  0.5 0.875 0  0.625 0.875 0  0.75 0.875 0  0.875 0.875 0  1 0.875 0  0 1 0  0.125 1 0  0.25 1 0  0.375 1 0  0.5 1 0  0.625 1 0  0.75 1 0  0.875 1 0  1 1 0  </DataArray>
</Points>
<Cells>
<DataArray  type="UInt32"  Name="connectivity"  format="ascii">0 1 10  0 9 10  1 2 11  1 10 11  2 3 12  2 11 12  3 4 13  3 12 13  4 5 14  4 13 14  5 6 15  5 14 15  6 7 16  6 15 16  7 8 17  7 16 17  9 10 19  9 18 19  10 11 20  10 19 20  11 12 21  11 20 21  12 13 22  12 21 22  13 14 23  13 22 23  14 15 24  14 23 24  15 16 25  15 24 25  16 17 26  16 25 26  18 19 28  18 27 28  19 20 29  19 28 29  20 21 30  20 29 30  21 22 31  21 30 31  22 23 32  22 31 32  23 24 33  23 32 33  24 25 34  24 33 34  25 26 35  25 34 35  27 28 37  27 36 37  28 29 38  28 37 38  29 30 39  29 38 39  30 31 40  30 39 40  31 32 41  31 40 41  32 33 42  32 41 42  33 34 43  33 42 43  34 35 44  34 43 44  36 37 46  36 45 46  37 38 47  37 46 47  38 39 48  38 47 48  39 40 49  39 48 49  40 41 50  40 49 50  41 42 51  41 50 51  42 43 52  42 51 52  43 44 53  43 52 53  45 46 55  45 54 55  46 47 56  46 55 56  47 48 57  47 56 57  48 49 58  48 57 58  49 50 59  49 58 59  50 51 60  50 59 60  51 52 61  51 60 61  52 53 62  52 61 62  54 55 64  54 63 64  55 56 65  55 64 65  56 57 66  56 65 66  57 58 67  57 66 67  58 59 68  58 67 68  59 60 69  59 68 69  60 61 70  60 69 70  61 62 71  61 70 71  63 64 73  63 72 73  64 65 74  64 73 74  65 66 75  65 74 75  66 67 76  66 75 76  67 68 77  67 76 77  68 69 78  68 77 78  69 70 79  69 78 79  70 71 80  70 79 80  </DataArray>
<DataArray  type="UInt32"  Name="offsets"  format="ascii">3 6 9 12 15 18 21 24 27 30 33 36 39 42 45 48 51 54 57 60 63 66 69 72 75 78 81 84 87 90 93 96 99 102 105 108 111 114 117 120 123 126 129 132 135 138 141 144 147 150 153 156 159 162 165 168 171 174 177 180 183 186 189 192 195 198 201 204 207 210 213 216 219 222 225 228 231 234 237 240 243 246 249 252 255 258 261 264 267 270 273 276 279 282 285 288 291 294 297 300 303 306 309 312 315 318 321 324 327 330 333 336 339 342 345 348 351 354 357 360 363 366 369 372 375 378 381 384 </DataArray>
<DataArray  type="UInt8"  Name="types"  format="ascii">5 5 5 5 5 5 5 5 5 5 5 5 5 5 5 5 5 5 5 5 5 5 5 5 5 5 5 5 5 5 5 5 5 5 5 5 5 5 5 5 5 5 5 5 5 5 5 5 5 5 5 5 5 5 5 5 5 5 5 5 5 5 5 5 5 5 5 5 5 5 5 5 5 5 5 5 5 5 5 5 5 5 5 5 5 5 5 5 5 5 5 5 5 5 5 5 5 5 5 5 5 5 5 5 5 5 5 5 5 5 5 5 5 5 5 5 5 5 5 5 5 5 5 5 5 5 5 5 </DataArray>
</Cells>
<CellData  Scalars="f_87450"> 
<DataArray  type="Float64"  Name="f_87450"  format="ascii">7.5271434436285732e-08   7.2555305788397076e-08   4.3762261389117293e-08   5.0466075766708731e-08   1.4202139704174425e-08   2.2792159116289793e-08   3.9602262795478317e-09   9.1280460218361360e-09   1.9043073928555052e-08   1.7455320886492936e-08   5.0657342494900736e-08   4.2908464749101200e-08   8.0223562542755661e-08   7.0591976782128485e-08   9.0040651155368696e-08   8.4366067720168476e-08   4.7007762563136319e-08   3.6409415660376368e-08   2.7472592066564156e-08   2.4989489289772813e-08   1.6984550105668838e-08   1.9881468469487934e-08   2.1832771474745590e-08   2.6417127134295173e-08   3.9181151610944354e-08   4.0687163783986566e-08   5.8864956307566157e-08   5.4334203759594005e-08   6.9170732209708958e-08   5.9367169707658456e-08   6.3490470247576434e-08   5.2903699366413875e-08   1.6034085325236631e-08   7.5665270486512984e-09   1.7282884539237019e-08   1.1677802926313673e-08   2.9642436723012400e-08   2.7981600028507351e-08   4.6057790654471912e-08   4.8100351479558896e-08   5.6908040877287384e-08   6.0230332878990273e-08   5.5832091753018463e-08   5.7266240278720534e-08   4.3364505133444749e-08   4.0949694918654633e-08   2.6164383974481133e-08   2.0797350360766969e-08   4.4939177518699938e-09   3.0365867622660069e-09   2.1944052141696887e-08   1.8447992449877715e-08   4.6114493252362436e-08   4.2515533379956893e-08   6.2975338619734649e-08   6.1643229583855299e-08   6.2641723901634200e-08   6.4684780961344989e-08   4.5310536566953323e-08   4.9859748148708317e-08   2.1130569782217408e-08   2.5858350467319034e-08   3.6811857690905325e-09   6.5643259048912097e-09   1.9054726166158860e-08   2.5475621825115990e-08   3.8615538464184165e-08   4.1333150301118742e-08   5.6700254680659814e-08   5.4963016838512212e-08   6.2699417375087142e-08   5.9101660043731503e-08   5.3091352121750572e-08   5.1431112024534562e-08   3.3514322409623891e-08   3.6447517709330614e-08   1.5502375400444632e-08   2.2934875462412465e-08   9.1572109491613422e-09   1.8555247263350430e-08   5.1194324702110460e-08   6.1799735569593568e-08   5.7534283527556715e-08   6.6930160821520609e-08   5.5200085813889754e-08   5.8028486883821598e-08   4.5392732272518301e-08   4.1962536153824850e-08   3.3852965498410866e-08   2.8242095940831549e-08   2.7358046826639151e-08   2.4909322552857295e-08   2.9786284972369350e-08   3.3919577169299740e-08   3.9408518149558699e-08   4.9763323816879283e-08   8.2117919285905336e-08   9.0505937880088540e-08   6.7626577477222904e-08   8.0013631899800482e-08   4.2495404781424846e-08   4.9751711197598743e-08   2.1195015645990204e-08   2.0220698238609098e-08   1.6203142745617168e-08   8.7329132627263747e-09   3.0460352352103307e-08   2.2028471675805467e-08   5.5617354871769322e-08   5.2321849553472714e-08   7.6716936248479396e-08   8.1796829997902607e-08   9.3639212800102793e-08   9.5004254733529331e-08   6.3011512414949634e-08   7.3028976124278504e-08   2.6034118866472656e-08   3.4841642540258439e-08   4.1665272315047817e-09   6.1790168755021808e-09   1.0234240472704580e-08   3.8688749895692380e-09   4.0699969356769510e-08   2.9299126690158826e-08   7.7730026952707544e-08   6.7576256729270378e-08   9.9297422348138483e-08   9.6289180895389212e-08   </DataArray> 
</CellData> 
</Piece>
</UnstructuredGrid>
</VTKFile>