<?xml version="1.0"?>
<VTKFile type="UnstructuredGrid"  version="0.1"  >
<UnstructuredGrid>
<Piece  NumberOfPoints="81" NumberOfCells="128">
<Points>
<DataArray  type="Float64"  NumberOfComponents="3"  format="ascii">0 0 0  0.125 0 0  0.25 0 0  0.375 0 0  0.5 0 0  0.625 0 0  0.75 0 0  0.875 0 0  1 0 0  0 0.125 0  0.125 0.125 0  0.25 0.125 0  0.375 0.125 0  0.5 0.125 0  0.625 0.125 0  0.75 0.125 0  0.875 0.125 0  1 0.125 0  0 0.25 0  0.125 0.25 0  0.25 0.25 0  0.375 0.25 0  0.5 0.25 0  0.625 0.25 0  0.75 0.25 0  0.875 0.25 0  1 0.25 0  0 0.375 0  0.125 0.375 0  0.25 0.375 0  0.375 0.375 0  0.5 0.375 0  0.625 0.375 0  0.75 0.375 0  0.875 0.375 0  1 0.375 0  0 0.5 0  0.125 0.5 0  0.25 0.5 0  0.375 0.5 0  0.5 0.5 0  0.625 0.5 0  0.75 0.5 0  0.875 0.5 0  1 0.5 0  0 0.625 0  0.125 0.625 0  0.25 0.625 0  0.375 0.625 0  0.5 0.625 0  0.625 0.625 0  0.75 0.625 0  0.875 0.625 0  1 0.625 0  0 0.75 0  0.125 0.75 0  0.25 0.75 0  0.375 0.75 0  0.5 0.75 0  0.625 0.75 0  0.75 0.75 0  0.875 0.75 0  1 0.75 0  0 0.875 0  0.125 0.875 0  0.25 0.875 0  0.375 0.875 0  0.5 0.875 0  0.625 0.875 0  0.75 0.875 0  0.875 0.875 0  1 0.875 0  0 1 0  0.125 1 0  0.25 1 0  0.375 1 0  0.5 1 0  0.625 1 0  0.75 1 0  0.875 1 0  1 1 0  </DataArray>
</Points>
<Cells>
<DataArray  type="UInt32"  Name="connectivity"  format="ascii">0 1 10  0 9 10  1 2 11  1 10 11  2 3 12  2 11 12  3 4 13  3 12 13  4 5 14  4 13 14  5 6 15  5 14 15  6 7 16  6 15 16  7 8 17  7 16 17  9 10 19  9 18 19  10 11 20  10 19 20  11 12 21  11 20 21  12 13 22  12 21 22  13 14 23  13 22 23  14 15 24  14 23 24  15 16 25  15 24 25  16 17 26  16 25 26  18 19 28  18 27 28  19 20 29  19 28 29  20 21 30  20 29 30  21 22 31  21 30 31  22 23 32  22 31 32  23 24 33  23 32 33  24 25 34  24 33 34  25 26 35  25 34 35  27 28 37  27 36 37  28 29 38  28 37 38  29 30 39  29 38 39  30 31 40  30 39 40  31 32 41  31 40 41  32 33 42  32 41 42  33 34 43  33 42 43  34 35 44  34 43 44  36 37 46  36 45 46  37 38 47  37 46 47  38 39 48  38 47 48  39 40 49  39 48 49  40 41 50  40 49 50  41 42 51  41 50 51  42 43 52  42 51 52  43 44 53  43 52 53  45 46 55  45 54 55  46 47 56  46 55 56  47 48 57  47 56 57  48 49 58  48 57 58  49 50 59  49 58 59  50 51 60  50 59 60  51 52 61  51 60 61  52 53 62  52 61 62  54 55 64  54 63 64  55 56 65  55 64 65  56 57 66  56 65 66  57 58 67  57 66 67  58 59 68  58 67 68  59 60 69  59 68 69  60 61 70  60 69 70  61 62 71  61 70 71  63 64 73  63 72 73  64 65 74  64 73 74  65 66 75  65 74 75  66 67 76  66 75 76  67 68 77  67 76 77  68 69 78  68 77 78  69 70 79  69 78 79  70 71 80  70 79 80  </DataArray>
<DataArray  type="UInt32"  Name="offsets"  format="ascii">3 6 9 12 15 18 21 24 27 30 33 36 39 42 45 48 51 54 57 60 63 66 69 72 75 78 81 84 87 90 93 96 99 102 105 108 111 114 117 120 123 126 129 132 135 138 141 144 147 150 153 156 159 162 165 168 171 174 177 180 183 186 189 192 195 198 201 204 207 210 213 216 219 222 225 228 231 234 237 240 243 246 249 252 255 258 261 264 267 270 273 276 279 282 285 288 291 294 297 300 303 306 309 312 315 318 321 324 327 330 333 336 339 342 345 348 351 354 357 360 363 366 369 372 375 378 381 384 </DataArray>
<DataArray  type="UInt8"  Name="types"  format="ascii">5 5 5 5 5 5 5 5 5 5 5 5 5 5 5 5 5 5 5 5 5 5 5 5 5 5 5 5 5 5 5 5 5 5 5 5 5 5 5 5 5 5 5 5 5 5 5 5 5 5 5 5 5 5 5 5 5 5 5 5 5 5 5 5 5 5 5 5 5 5 5 5 5 5 5 5 5 5 5 5 5 5 5 5 5 5 5 5 5 5 5 5 5 5 5 5 5 5 5 5 5 5 5 5 5 5 5 5 5 5 5 5 5 5 5 5 5 5 5 5 5 5 5 5 5 5 5 5 </DataArray>
</Cells>
<CellData  Scalars="f_53361"> 
<DataArray  type="Float64"  Name="f_53361"  format="ascii">4.4416247470964927e-05   3.6951212813206143e-05   3.2741092064029987e-05   2.7033809340848579e-05   1.5891517440754165e-05   1.3053778727449144e-05   3.7369002995817271e-06   3.2515088698489400e-06   3.4050703939940002e-06   3.4273041951088876e-06   1.5097707960888136e-05   1.3538379334792576e-05   3.1963446692933746e-05   2.7727404204824831e-05   4.4100338658603305e-05   3.7752666788481743e-05   3.9106035154297308e-05   2.1259657493795615e-05   3.4003120973647603e-05   1.7660718456458182e-05   2.4342322611427602e-05   1.4319242369905405e-05   1.5853704825546416e-05   1.3244833013743353e-05   1.3586276073565404e-05   1.5147130699383852e-05   1.8937522066207652e-05   1.9002759684750445e-05   2.8827429936491655e-05   2.2652608225042918e-05   3.7483932053601705e-05   2.4058326345955090e-05   2.5922563320341898e-05   6.0095745142185418e-06   3.1356004638826618e-05   9.1399786481424169e-06   3.3992060325963398e-05   1.7927394942025067e-05   3.2386673507740272e-05   2.7244893868544167e-05   2.7580121912181769e-05   3.1689077620928329e-05   2.2478513198601942e-05   2.8725247890354707e-05   2.0149763037506545e-05   2.0165168551361169e-05   2.2011099081798989e-05   1.1094765632968790e-05   1.2400518603179704e-05   5.8657691844520736e-09   2.6269376906296804e-05   6.3915336889115319e-06   3.9239000382021625e-05   2.1792485293774666e-05   4.3781167253092479e-05   3.7163054109001550e-05   3.7299588677588307e-05   4.3496275599295628e-05   2.3649923713108671e-05   3.7088530748712918e-05   1.0885812665656672e-05   2.1700948991966416e-05   6.5382774229455126e-06   6.3488040515601934e-06   6.3378431726268578e-06   6.7232879439223533e-06   2.1649591283803673e-05   1.1000983835467880e-05   3.6999895582330839e-05   2.3655272481760309e-05   4.3394056489404122e-05   3.7218708192996652e-05   3.7077771240042910e-05   4.3687173501041188e-05   2.1743758643838354e-05   3.9211888617770040e-05   6.3766253617591720e-06   2.6349373647281994e-05   1.4139732244694985e-09   1.2564606621271484e-05   1.1243585298381040e-05   2.2269239148593499e-05   2.0172482360225644e-05   2.0298150987345091e-05   2.8572327647331599e-05   2.2437274092628140e-05   3.1449746989878681e-05   2.7380001587226497e-05   2.7042579416774728e-05   3.2150872623000255e-05   1.7863239204272833e-05   3.3864449072224678e-05   9.2337767228439451e-06   3.1417357653020502e-05   6.1880562478742645e-06   2.6143562173105990e-05   2.4280490085186552e-05   3.7665411167482744e-05   2.2713903001885500e-05   2.8922308802316178e-05   1.8873562254547154e-05   1.8872859767647476e-05   1.4908723731616246e-05   1.3382390612674045e-05   1.3042064750051554e-05   1.5612286531068988e-05   1.4276134845283614e-05   2.4187294006542274e-05   1.7808058204844847e-05   3.4008589745381013e-05   2.1516655661807184e-05   3.9253370307243540e-05   3.7919017402530027e-05   4.4100338658603386e-05   2.7805618390147292e-05   3.1948318193101221e-05   1.3505714556010414e-05   1.5045066952823222e-05   3.3261195761630268e-06   3.3137838852115391e-06   3.1644606648950385e-06   3.6283727814576003e-06   1.3055656130132485e-05   1.5797459556039217e-05   2.7147900178217339e-05   3.2685019378834098e-05   3.7135511742402254e-05   4.4399457124090838e-05   </DataArray> 
</CellData> 
</Piece>
</UnstructuredGrid>
</VTKFile>