<?xml version="1.0"?>
<VTKFile type="UnstructuredGrid"  version="0.1"  >
<UnstructuredGrid>
<Piece  NumberOfPoints="81" NumberOfCells="128">
<Points>
<DataArray  type="Float64"  NumberOfComponents="3"  format="ascii">0 0 0  0.125 0 0  0.25 0 0  0.375 0 0  0.5 0 0  0.625 0 0  0.75 0 0  0.875 0 0  1 0 0  0 0.125 0  0.125 0.125 0  0.25 0.125 0  0.375 0.125 0  0.5 0.125 0  0.625 0.125 0  0.75 0.125 0  0.875 0.125 0  1 0.125 0  0 0.25 0  0.125 0.25 0  0.25 0.25 0  0.375 0.25 0  0.5 0.25 0  0.625 0.25 0  0.75 0.25 0  0.875 0.25 0  1 0.25 0  0 0.375 0  0.125 0.375 0  0.25 0.375 0  0.375 0.375 0  0.5 0.375 0  0.625 0.375 0  0.75 0.375 0  0.875 0.375 0  1 0.375 0  0 0.5 0  0.125 0.5 0  0.25 0.5 0  0.375 0.5 0  0.5 0.5 0  0.625 0.5 0  0.75 0.5 0  0.875 0.5 0  1 0.5 0  0 0.625 0  0.125 0.625 0  0.25 0.625 0  0.375 0.625 0  0.5 0.625 0  0.625 0.625 0  0.75 0.625 0  0.875 0.625 0  1 0.625 0  0 0.75 0  0.125 0.75 0  0.25 0.75 0  0.375 0.75 0  0.5 0.75 0  0.625 0.75 0  0.75 0.75 0  0.875 0.75 0  1 0.75 0  0 0.875 0  0.125 0.875 0  0.25 0.875 0  0.375 0.875 0  0.5 0.875 0  0.625 0.875 0  0.75 0.875 0  0.875 0.875 0  1 0.875 0  0 1 0  0.125 1 0  0.25 1 0  0.375 1 0  0.5 1 0  0.625 1 0  0.75 1 0  0.875 1 0  1 1 0  </DataArray>
</Points>
<Cells>
<DataArray  type="UInt32"  Name="connectivity"  format="ascii">0 1 10  0 9 10  1 2 11  1 10 11  2 3 12  2 11 12  3 4 13  3 12 13  4 5 14  4 13 14  5 6 15  5 14 15  6 7 16  6 15 16  7 8 17  7 16 17  9 10 19  9 18 19  10 11 20  10 19 20  11 12 21  11 20 21  12 13 22  12 21 22  13 14 23  13 22 23  14 15 24  14 23 24  15 16 25  15 24 25  16 17 26  16 25 26  18 19 28  18 27 28  19 20 29  19 28 29  20 21 30  20 29 30  21 22 31  21 30 31  22 23 32  22 31 32  23 24 33  23 32 33  24 25 34  24 33 34  25 26 35  25 34 35  27 28 37  27 36 37  28 29 38  28 37 38  29 30 39  29 38 39  30 31 40  30 39 40  31 32 41  31 40 41  32 33 42  32 41 42  33 34 43  33 42 43  34 35 44  34 43 44  36 37 46  36 45 46  37 38 47  37 46 47  38 39 48  38 47 48  39 40 49  39 48 49  40 41 50  40 49 50  41 42 51  41 50 51  42 43 52  42 51 52  43 44 53  43 52 53  45 46 55  45 54 55  46 47 56  46 55 56  47 48 57  47 56 57  48 49 58  48 57 58  49 50 59  49 58 59  50 51 60  50 59 60  51 52 61  51 60 61  52 53 62  52 61 62  54 55 64  54 63 64  55 56 65  55 64 65  56 57 66  56 65 66  57 58 67  57 66 67  58 59 68  58 67 68  59 60 69  59 68 69  60 61 70  60 69 70  61 62 71  61 70 71  63 64 73  63 72 73  64 65 74  64 73 74  65 66 75  65 74 75  66 67 76  66 75 76  67 68 77  67 76 77  68 69 78  68 77 78  69 70 79  69 78 79  70 71 80  70 79 80  </DataArray>
<DataArray  type="UInt32"  Name="offsets"  format="ascii">3 6 9 12 15 18 21 24 27 30 33 36 39 42 45 48 51 54 57 60 63 66 69 72 75 78 81 84 87 90 93 96 99 102 105 108 111 114 117 120 123 126 129 132 135 138 141 144 147 150 153 156 159 162 165 168 171 174 177 180 183 186 189 192 195 198 201 204 207 210 213 216 219 222 225 228 231 234 237 240 243 246 249 252 255 258 261 264 267 270 273 276 279 282 285 288 291 294 297 300 303 306 309 312 315 318 321 324 327 330 333 336 339 342 345 348 351 354 357 360 363 366 369 372 375 378 381 384 </DataArray>
<DataArray  type="UInt8"  Name="types"  format="ascii">5 5 5 5 5 5 5 5 5 5 5 5 5 5 5 5 5 5 5 5 5 5 5 5 5 5 5 5 5 5 5 5 5 5 5 5 5 5 5 5 5 5 5 5 5 5 5 5 5 5 5 5 5 5 5 5 5 5 5 5 5 5 5 5 5 5 5 5 5 5 5 5 5 5 5 5 5 5 5 5 5 5 5 5 5 5 5 5 5 5 5 5 5 5 5 5 5 5 5 5 5 5 5 5 5 5 5 5 5 5 5 5 5 5 5 5 5 5 5 5 5 5 5 5 5 5 5 5 </DataArray>
</Cells>
<CellData  Scalars="f_37646"> 
<DataArray  type="Float64"  Name="f_37646"  format="ascii">1.7201737422682515e-04   1.6656201712157042e-04   1.0004949734425473e-04   1.1566501841627005e-04   3.2524857386319374e-05   5.2418444067632477e-05   8.9379664734694388e-06   2.0853602958709730e-05   4.3137237410445304e-05   3.9576989282574183e-05   1.1518031695218981e-04   9.7663547969923346e-05   1.8297205409865066e-04   1.6107300284008821e-04   2.0613984754740380e-04   1.9300646180189866e-04   1.0778780300819203e-04   8.3633248626747408e-05   6.3136252894913629e-05   5.7532617940171374e-05   3.8905948928605670e-05   4.5633182797243164e-05   4.9693199723033583e-05   6.0248467487204218e-05   8.9220007944642275e-05   9.2738245686231551e-05   1.3432432437525366e-04   1.2407280933051756e-04   1.5829757761466625e-04   1.3588575072531484e-04   1.4528010128345034e-04   1.2148634189976614e-04   3.7115574483392484e-05   1.7506435430891953e-05   3.9745332594177188e-05   2.6827606505266158e-05   6.7716494370016129e-05   6.3926951490651620e-05   1.0508660140244872e-04   1.0981417545294537e-04   1.2995098884344564e-04   1.3757395372944798e-04   1.2771256943202821e-04   1.3093914782592996e-04   9.9478297286119359e-05   9.3802431985903477e-05   6.0296713381440787e-05   4.7847291923248552e-05   1.0255967039796377e-05   6.7615674041172739e-06   5.0062624396639959e-05   4.1956927916890220e-05   1.0530428533687543e-04   9.7032196621828521e-05   1.4389857252331949e-04   1.4087830175856761e-04   1.4322683228192595e-04   1.4792722421780110e-04   1.0367886592834934e-04   1.1404643801222908e-04   4.8413378695549073e-05   5.9081804574018296e-05   8.4853087976388750e-06   1.4843019084821927e-05   4.3102116957288298e-05   5.7708357129980411e-05   8.7984302797960008e-05   9.4067965464043204e-05   1.2956441930349520e-04   1.2552218392671878e-04   1.4343797438732148e-04   1.3522215067542439e-04   1.2147772663990520e-04   1.1772950759424247e-04   7.6557702605339718e-05   8.3280085648066414e-05   3.5160152467241241e-05   5.2028528356810672e-05   2.0538058815945291e-05   4.1755751624681164e-05   1.1640629666440094e-04   1.4060355837916725e-04   1.3127405270873082e-04   1.5255909676854955e-04   1.2626841254519835e-04   1.3265170564981827e-04   1.0397005174353641e-04   9.6146830384455286e-05   7.7435525172110653e-05   6.4664429506475744e-05   6.2215766903737062e-05   5.6646285986963535e-05   6.7485831976352444e-05   7.6776280428670124e-05   8.9469781081780397e-05   1.1283191921535392e-04   1.8714971103416463e-04   2.0691777418033807e-04   1.5453707348425847e-04   1.8277551020669589e-04   9.7354971845472726e-05   1.1404396187782448e-04   4.8615931399113774e-05   4.6467625925113946e-05   3.6864985173666670e-05   1.9901375703733354e-05   6.9018662074625236e-05   4.9973485566263498e-05   1.2649160673931635e-04   1.1913998309009567e-04   1.7485790844093543e-04   1.8683538940538060e-04   2.1416031385729754e-04   2.1543047151094104e-04   1.4449498614137632e-04   1.6746188053305580e-04   5.9857115096185302e-05   8.0228192778490482e-05   9.5485458063826366e-06   1.4269894199741444e-05   2.3054364267630237e-05   8.6560035937110134e-06   9.2524204756881423e-05   6.6770248389727040e-05   1.7756190604024784e-04   1.5456847499557562e-04   2.2628613491510634e-04   2.2034301007196183e-04   </DataArray> 
</CellData> 
</Piece>
</UnstructuredGrid>
</VTKFile>