<?xml version="1.0"?>
<VTKFile type="UnstructuredGrid"  version="0.1"  >
<UnstructuredGrid>
<Piece  NumberOfPoints="1089" NumberOfCells="2048">
<Points>
<DataArray  type="Float64"  NumberOfComponents="3"  format="ascii">0 0 0  0.03125 0 0  0.0625 0 0  0.09375 0 0  0.125 0 0  0.15625 0 0  0.1875 0 0  0.21875 0 0  0.25 0 0  0.28125 0 0  0.3125 0 0  0.34375 0 0  0.375 0 0  0.40625 0 0  0.4375 0 0  0.46875 0 0  0.5 0 0  0.53125 0 0  0.5625 0 0  0.59375 0 0  0.625 0 0  0.65625 0 0  0.6875 0 0  0.71875 0 0  0.75 0 0  0.78125 0 0  0.8125 0 0  0.84375 0 0  0.875 0 0  0.90625 0 0  0.9375 0 0  0.96875 0 0  1 0 0  0 0.03125 0  0.03125 0.03125 0  0.0625 0.03125 0  0.09375 0.03125 0  0.125 0.03125 0  0.15625 0.03125 0  0.1875 0.03125 0  0.21875 0.03125 0  0.25 0.03125 0  0.28125 0.03125 0  0.3125 0.03125 0  0.34375 0.03125 0  0.375 0.03125 0  0.40625 0.03125 0  0.4375 0.03125 0  0.46875 0.03125 0  0.5 0.03125 0  0.53125 0.03125 0  0.5625 0.03125 0  0.59375 0.03125 0  0.625 0.03125 0  0.65625 0.03125 0  0.6875 0.03125 0  0.71875 0.03125 0  0.75 0.03125 0  0.78125 0.03125 0  0.8125 0.03125 0  0.84375 0.03125 0  0.875 0.03125 0  0.90625 0.03125 0  0.9375 0.03125 0  0.96875 0.03125 0  1 0.03125 0  0 0.0625 0  0.03125 0.0625 0  0.0625 0.0625 0  0.09375 0.0625 0  0.125 0.0625 0  0.15625 0.0625 0  0.1875 0.0625 0  0.21875 0.0625 0  0.25 0.0625 0  0.28125 0.0625 0  0.3125 0.0625 0  0.34375 0.0625 0  0.375 0.0625 0  0.40625 0.0625 0  0.4375 0.0625 0  0.46875 0.0625 0  0.5 0.0625 0  0.53125 0.0625 0  0.5625 0.0625 0  0.59375 0.0625 0  0.625 0.0625 0  0.65625 0.0625 0  0.6875 0.0625 0  0.71875 0.0625 0  0.75 0.0625 0  0.78125 0.0625 0  0.8125 0.0625 0  0.84375 0.0625 0  0.875 0.0625 0  0.90625 0.0625 0  0.9375 0.0625 0  0.96875 0.0625 0  1 0.0625 0  0 0.09375 0  0.03125 0.09375 0  0.0625 0.09375 0  0.09375 0.09375 0  0.125 0.09375 0  0.15625 0.09375 0  0.1875 0.09375 0  0.21875 0.09375 0  0.25 0.09375 0  0.28125 0.09375 0  0.3125 0.09375 0  0.34375 0.09375 0  0.375 0.09375 0  0.40625 0.09375 0  0.4375 0.09375 0  0.46875 0.09375 0  0.5 0.09375 0  0.53125 0.09375 0  0.5625 0.09375 0  0.59375 0.09375 0  0.625 0.09375 0  0.65625 0.09375 0  0.6875 0.09375 0  0.71875 0.09375 0  0.75 0.09375 0  0.78125 0.09375 0  0.8125 0.09375 0  0.84375 0.09375 0  0.875 0.09375 0  0.90625 0.09375 0  0.9375 0.09375 0  0.96875 0.09375 0  1 0.09375 0  0 0.125 0  0.03125 0.125 0  0.0625 0.125 0  0.09375 0.125 0  0.125 0.125 0  0.15625 0.125 0  0.1875 0.125 0  0.21875 0.125 0  0.25 0.125 0  0.28125 0.125 0  0.3125 0.125 0  0.34375 0.125 0  0.375 0.125 0  0.40625 0.125 0  0.4375 0.125 0  0.46875 0.125 0  0.5 0.125 0  0.53125 0.125 0  0.5625 0.125 0  0.59375 0.125 0  0.625 0.125 0  0.65625 0.125 0  0.6875 0.125 0  0.71875 0.125 0  0.75 0.125 0  0.78125 0.125 0  0.8125 0.125 0  0.84375 0.125 0  0.875 0.125 0  0.90625 0.125 0  0.9375 0.125 0  0.96875 0.125 0  1 0.125 0  0 0.15625 0  0.03125 0.15625 0  0.0625 0.15625 0  0.09375 0.15625 0  0.125 0.15625 0  0.15625 0.15625 0  0.1875 0.15625 0  0.21875 0.15625 0  0.25 0.15625 0  0.28125 0.15625 0  0.3125 0.15625 0  0.34375 0.15625 0  0.375 0.15625 0  0.40625 0.15625 0  0.4375 0.15625 0  0.46875 0.15625 0  0.5 0.15625 0  0.53125 0.15625 0  0.5625 0.15625 0  0.59375 0.15625 0  0.625 0.15625 0  0.65625 0.15625 0  0.6875 0.15625 0  0.71875 0.15625 0  0.75 0.15625 0  0.78125 0.15625 0  0.8125 0.15625 0  0.84375 0.15625 0  0.875 0.15625 0  0.90625 0.15625 0  0.9375 0.15625 0  0.96875 0.15625 0  1 0.15625 0  0 0.1875 0  0.03125 0.1875 0  0.0625 0.1875 0  0.09375 0.1875 0  0.125 0.1875 0  0.15625 0.1875 0  0.1875 0.1875 0  0.21875 0.1875 0  0.25 0.1875 0  0.28125 0.1875 0  0.3125 0.1875 0  0.34375 0.1875 0  0.375 0.1875 0  0.40625 0.1875 0  0.4375 0.1875 0  0.46875 0.1875 0  0.5 0.1875 0  0.53125 0.1875 0  0.5625 0.1875 0  0.59375 0.1875 0  0.625 0.1875 0  0.65625 0.1875 0  0.6875 0.1875 0  0.71875 0.1875 0  0.75 0.1875 0  0.78125 0.1875 0  0.8125 0.1875 0  0.84375 0.1875 0  0.875 0.1875 0  0.90625 0.1875 0  0.9375 0.1875 0  0.96875 0.1875 0  1 0.1875 0  0 0.21875 0  0.03125 0.21875 0  0.0625 0.21875 0  0.09375 0.21875 0  0.125 0.21875 0  0.15625 0.21875 0  0.1875 0.21875 0  0.21875 0.21875 0  0.25 0.21875 0  0.28125 0.21875 0  0.3125 0.21875 0  0.34375 0.21875 0  0.375 0.21875 0  0.40625 0.21875 0  0.4375 0.21875 0  0.46875 0.21875 0  0.5 0.21875 0  0.53125 0.21875 0  0.5625 0.21875 0  0.59375 0.21875 0  0.625 0.21875 0  0.65625 0.21875 0  0.6875 0.21875 0  0.71875 0.21875 0  0.75 0.21875 0  0.78125 0.21875 0  0.8125 0.21875 0  0.84375 0.21875 0  0.875 0.21875 0  0.90625 0.21875 0  0.9375 0.21875 0  0.96875 0.21875 0  1 0.21875 0  0 0.25 0  0.03125 0.25 0  0.0625 0.25 0  0.09375 0.25 0  0.125 0.25 0  0.15625 0.25 0  0.1875 0.25 0  0.21875 0.25 0  0.25 0.25 0  0.28125 0.25 0  0.3125 0.25 0  0.34375 0.25 0  0.375 0.25 0  0.40625 0.25 0  0.4375 0.25 0  0.46875 0.25 0  0.5 0.25 0  0.53125 0.25 0  0.5625 0.25 0  0.59375 0.25 0  0.625 0.25 0  0.65625 0.25 0  0.6875 0.25 0  0.71875 0.25 0  0.75 0.25 0  0.78125 0.25 0  0.8125 0.25 0  0.84375 0.25 0  0.875 0.25 0  0.90625 0.25 0  0.9375 0.25 0  0.96875 0.25 0  1 0.25 0  0 0.28125 0  0.03125 0.28125 0  0.0625 0.28125 0  0.09375 0.28125 0  0.125 0.28125 0  0.15625 0.28125 0  0.1875 0.28125 0  0.21875 0.28125 0  0.25 0.28125 0  0.28125 0.28125 0  0.3125 0.28125 0  0.34375 0.28125 0  0.375 0.28125 0  0.40625 0.28125 0  0.4375 0.28125 0  0.46875 0.28125 0  0.5 0.28125 0  0.53125 0.28125 0  0.5625 0.28125 0  0.59375 0.28125 0  0.625 0.28125 0  0.65625 0.28125 0  0.6875 0.28125 0  0.71875 0.28125 0  0.75 0.28125 0  0.78125 0.28125 0  0.8125 0.28125 0  0.84375 0.28125 0  0.875 0.28125 0  0.90625 0.28125 0  0.9375 0.28125 0  0.96875 0.28125 0  1 0.28125 0  0 0.3125 0  0.03125 0.3125 0  0.0625 0.3125 0  0.09375 0.3125 0  0.125 0.3125 0  0.15625 0.3125 0  0.1875 0.3125 0  0.21875 0.3125 0  0.25 0.3125 0  0.28125 0.3125 0  0.3125 0.3125 0  0.34375 0.3125 0  0.375 0.3125 0  0.40625 0.3125 0  0.4375 0.3125 0  0.46875 0.3125 0  0.5 0.3125 0  0.53125 0.3125 0  0.5625 0.3125 0  0.59375 0.3125 0  0.625 0.3125 0  0.65625 0.3125 0  0.6875 0.3125 0  0.71875 0.3125 0  0.75 0.3125 0  0.78125 0.3125 0  0.8125 0.3125 0  0.84375 0.3125 0  0.875 0.3125 0  0.90625 0.3125 0  0.9375 0.3125 0  0.96875 0.3125 0  1 0.3125 0  0 0.34375 0  0.03125 0.34375 0  0.0625 0.34375 0  0.09375 0.34375 0  0.125 0.34375 0  0.15625 0.34375 0  0.1875 0.34375 0  0.21875 0.34375 0  0.25 0.34375 0  0.28125 0.34375 0  0.3125 0.34375 0  0.34375 0.34375 0  0.375 0.34375 0  0.40625 0.34375 0  0.4375 0.34375 0  0.46875 0.34375 0  0.5 0.34375 0  0.53125 0.34375 0  0.5625 0.34375 0  0.59375 0.34375 0  0.625 0.34375 0  0.65625 0.34375 0  0.6875 0.34375 0  0.71875 0.34375 0  0.75 0.34375 0  0.78125 0.34375 0  0.8125 0.34375 0  0.84375 0.34375 0  0.875 0.34375 0  0.90625 0.34375 0  0.9375 0.34375 0  0.96875 0.34375 0  1 0.34375 0  0 0.375 0  0.03125 0.375 0  0.0625 0.375 0  0.09375 0.375 0  0.125 0.375 0  0.15625 0.375 0  0.1875 0.375 0  0.21875 0.375 0  0.25 0.375 0  0.28125 0.375 0  0.3125 0.375 0  0.34375 0.375 0  0.375 0.375 0  0.40625 0.375 0  0.4375 0.375 0  0.46875 0.375 0  0.5 0.375 0  0.53125 0.375 0  0.5625 0.375 0  0.59375 0.375 0  0.625 0.375 0  0.65625 0.375 0  0.6875 0.375 0  0.71875 0.375 0  0.75 0.375 0  0.78125 0.375 0  0.8125 0.375 0  0.84375 0.375 0  0.875 0.375 0  0.90625 0.375 0  0.9375 0.375 0  0.96875 0.375 0  1 0.375 0  0 0.40625 0  0.03125 0.40625 0  0.0625 0.40625 0  0.09375 0.40625 0  0.125 0.40625 0  0.15625 0.40625 0  0.1875 0.40625 0  0.21875 0.40625 0  0.25 0.40625 0  0.28125 0.40625 0  0.3125 0.40625 0  0.34375 0.40625 0  0.375 0.40625 0  0.40625 0.40625 0  0.4375 0.40625 0  0.46875 0.40625 0  0.5 0.40625 0  0.53125 0.40625 0  0.5625 0.40625 0  0.59375 0.40625 0  0.625 0.40625 0  0.65625 0.40625 0  0.6875 0.40625 0  0.71875 0.40625 0  0.75 0.40625 0  0.78125 0.40625 0  0.8125 0.40625 0  0.84375 0.40625 0  0.875 0.40625 0  0.90625 0.40625 0  0.9375 0.40625 0  0.96875 0.40625 0  1 0.40625 0  0 0.4375 0  0.03125 0.4375 0  0.0625 0.4375 0  0.09375 0.4375 0  0.125 0.4375 0  0.15625 0.4375 0  0.1875 0.4375 0  0.21875 0.4375 0  0.25 0.4375 0  0.28125 0.4375 0  0.3125 0.4375 0  0.34375 0.4375 0  0.375 0.4375 0  0.40625 0.4375 0  0.4375 0.4375 0  0.46875 0.4375 0  0.5 0.4375 0  0.53125 0.4375 0  0.5625 0.4375 0  0.59375 0.4375 0  0.625 0.4375 0  0.65625 0.4375 0  0.6875 0.4375 0  0.71875 0.4375 0  0.75 0.4375 0  0.78125 0.4375 0  0.8125 0.4375 0  0.84375 0.4375 0  0.875 0.4375 0  0.90625 0.4375 0  0.9375 0.4375 0  0.96875 0.4375 0  1 0.4375 0  0 0.46875 0  0.03125 0.46875 0  0.0625 0.46875 0  0.09375 0.46875 0  0.125 0.46875 0  0.15625 0.46875 0  0.1875 0.46875 0  0.21875 0.46875 0  0.25 0.46875 0  0.28125 0.46875 0  0.3125 0.46875 0  0.34375 0.46875 0  0.375 0.46875 0  0.40625 0.46875 0  0.4375 0.46875 0  0.46875 0.46875 0  0.5 0.46875 0  0.53125 0.46875 0  0.5625 0.46875 0  0.59375 0.46875 0  0.625 0.46875 0  0.65625 0.46875 0  0.6875 0.46875 0  0.71875 0.46875 0  0.75 0.46875 0  0.78125 0.46875 0  0.8125 0.46875 0  0.84375 0.46875 0  0.875 0.46875 0  0.90625 0.46875 0  0.9375 0.46875 0  0.96875 0.46875 0  1 0.46875 0  0 0.5 0  0.03125 0.5 0  0.0625 0.5 0  0.09375 0.5 0  0.125 0.5 0  0.15625 0.5 0  0.1875 0.5 0  0.21875 0.5 0  0.25 0.5 0  0.28125 0.5 0  0.3125 0.5 0  0.34375 0.5 0  0.375 0.5 0  0.40625 0.5 0  0.4375 0.5 0  0.46875 0.5 0  0.5 0.5 0  0.53125 0.5 0  0.5625 0.5 0  0.59375 0.5 0  0.625 0.5 0  0.65625 0.5 0  0.6875 0.5 0  0.71875 0.5 0  0.75 0.5 0  0.78125 0.5 0  0.8125 0.5 0  0.84375 0.5 0  0.875 0.5 0  0.90625 0.5 0  0.9375 0.5 0  0.96875 0.5 0  1 0.5 0  0 0.53125 0  0.03125 0.53125 0  0.0625 0.53125 0  0.09375 0.53125 0  0.125 0.53125 0  0.15625 0.53125 0  0.1875 0.53125 0  0.21875 0.53125 0  0.25 0.53125 0  0.28125 0.53125 0  0.3125 0.53125 0  0.34375 0.53125 0  0.375 0.53125 0  0.40625 0.53125 0  0.4375 0.53125 0  0.46875 0.53125 0  0.5 0.53125 0  0.53125 0.53125 0  0.5625 0.53125 0  0.59375 0.53125 0  0.625 0.53125 0  0.65625 0.53125 0  0.6875 0.53125 0  0.71875 0.53125 0  0.75 0.53125 0  0.78125 0.531
[...]
<CellData  Scalars="f_35706"> 
<DataArray  type="Float64"  Name="f_35706"  format="ascii">2.0626056650935879e-06   3.2190828640570366e-06   3.4363136246201779e-06   3.8454807510704613e-06   5.7861311909703646e-06   5.4653723170358579e-06   9.0152361364125723e-06   8.0005059275098756e-06   1.2998488377062342e-05   1.1353440782729485e-05   1.7582440230522001e-05   1.5395555653183663e-05   2.2590771179901891e-05   1.9971683566580088e-05   2.7830927015227442e-05   2.4906070809348018e-05   3.3101476110509803e-05   3.0009160662445048e-05   3.8199835663277886e-05   3.5084893505824997e-05   4.2930050765498871e-05   3.9938248154611615e-05   4.7110321636546391e-05   4.4382739941900174e-05   5.0579988013961665e-05   4.8247589455294187e-05   5.3205701699535591e-05   5.1384287155701935e-05   5.4886549830305555e-05   5.3672301860339300e-05   5.5557931904620275e-05   5.5023713804163941e-05   5.5194041544533974e-05   5.5386594256069681e-05   5.3808857620338980e-05   5.4747001804688082e-05   5.1455606664163520e-05   5.3129518571284464e-05   4.8224717256999905e-05   5.0596305700286301e-05   4.4240345039730968e-05   4.7244714357097818e-05   3.9655601945879669e-05   4.3203543934553451e-05   3.4646673081908893e-05   3.8628091080760898e-05   2.9406047507333333e-05   3.3694179474151354e-05   2.4135123478924621e-05   2.8591399086055074e-05   1.9036473786361416e-05   2.3515813149949838e-05   1.4306074301185506e-05   1.8662408984759818e-05   1.0125819657980866e-05   1.4217571183427978e-05   6.6567197383637180e-06   1.0351834000364703e-05   4.0334517927979567e-06   7.2131251819838332e-06   2.3628144677033928e-06   4.9208884384344173e-06   1.7434648613477754e-06   3.5692271120732871e-06   4.4239135286904962e-06   6.2743928647010646e-06   5.6953610115461362e-06   6.8277961002930547e-06   7.8406565597986375e-06   8.2430636827811677e-06   1.0777455822751501e-05   1.0472813079979161e-05   1.4396210783292072e-05   1.3430030428410610e-05   1.8558234688532125e-05   1.7000014401197736e-05   2.3103564055881432e-05   2.1045318465556260e-05   2.7857460689800115e-05   2.5410455173749368e-05   3.2637178881624519e-05   2.9927701566346697e-05   3.7258992590848769e-05   3.4423499060610300e-05   4.1545253988611436e-05   3.8725111087094479e-05   4.5331218175909952e-05   4.2667258249103902e-05   4.8471372471190681e-05   4.6098469578582959e-05   5.0845026990713374e-05   4.8886903965976481e-05   5.2360951597367785e-05   5.0925417451150773e-05   5.2960880981614165e-05   5.2135681412498206e-05   5.2621753170629308e-05   5.2471193282883093e-05   5.1356595462262548e-05   5.1919064016189948e-05   4.9214023784728459e-05   5.0500513544736312e-05   4.6276374803346842e-05   4.8270055105959167e-05   4.2656542698092993e-05   4.5313399674477810e-05   3.8493642434828268e-05   4.1744160861439781e-05   3.3947666712272493e-05   3.7699486629644654e-05   2.9193343061284922e-05   3.3334785201444381e-05   2.4413429874033588e-05   2.8817746949693946e-05   1.9791715765454228e-05   2.4321890464748602e-05   1.5506008414332677e-05   2.0019878833607686e-05   1.1721422330780895e-05   1.6076864902892924e-05   8.5842876874922380e-06   1.2644155396218067e-05   6.2167503798238226e-06   9.8536490630196094e-06   4.7094280909403220e-06   7.8140697868248159e-06   4.0895672780711007e-06   6.6107689896083377e-06   7.7654159163885450e-06   1.0200229384611909e-05   8.8629667298003229e-06   1.0643818041174426e-05   1.0718894151827344e-05   1.1803917038789337e-05   1.3254774504319520e-05   1.3641874494287421e-05   1.6373691395476167e-05   1.6087787373949860e-05   1.9956525384275646e-05   1.9047196158174931e-05   2.3865925887937496e-05   2.2405971021741668e-05   2.7951759876398401e-05   2.6034838556588942e-05   3.2057028711646282e-05   2.9794270674837856e-05   3.6023958539790514e-05   3.3539778437463447e-05   3.9700083830907618e-05   3.7127431139945433e-05   4.2944113902585789e-05   4.0419372491894277e-05   4.5631365265690020e-05   4.3289111745012432e-05   4.7658553965144884e-05   4.5626381783535443e-05   4.8947764872544754e-05   4.7341375429962041e-05   4.9449445872603358e-05   4.8368196225155402e-05   4.9144312118522097e-05   4.8667390606740088e-05   4.8044087328839949e-05   4.8227463919669374e-05   4.6191053771078666e-05   4.7065321835802526e-05   4.3656428382602418e-05   4.5225620090430753e-05   4.0537627664343496e-05   4.2779047402485364e-05   3.6954526837805476e-05   3.9819607431174837e-05   3.3044857698505932e-05   3.6461004080818029e-05   2.8958923231098999e-05   3.2832268981917096e-05   2.4853834121680215e-05   2.9072799460952844e-05   2.0887491106844158e-05   2.5326999439550638e-05   1.7212542321584712e-05   2.1738736186157040e-05   1.3970514196776422e-05   1.8445849448184309e-05   1.1286164176355279e-05   1.5574990270984436e-05   9.2616151102798126e-06   1.3237111711187151e-05   7.9696493524097736e-06   1.1523473885815311e-05   7.4547173842360888e-06   1.0502821461288688e-05   1.1924998927243311e-05   1.4841224825940860e-05   1.2816814729238764e-05   1.5150235110323162e-05   1.4313501515853121e-05   1.6007314176847289e-05   1.6351847128321982e-05   1.7381185859598723e-05   1.8852642212321800e-05   1.9220166641887046e-05   2.1719924696563156e-05   2.1453762550608913e-05   2.4843774089416945e-05   2.3995990735492723e-05   2.8104314453680048e-05   2.6748982986641034e-05   3.1376328727349228e-05   2.9606830563504282e-05   3.4534108367372691e-05   3.2459649436601348e-05   3.7456309780813789e-05   3.5197783009791827e-05   4.0030631189805888e-05   3.7716000608772042e-05   4.2158135301206632e-05   3.9917531878032195e-05   4.3757054963108224e-05   4.1717780128843734e-05   4.4765937299502040e-05   4.3047570246728672e-05   4.5146006395028148e-05   4.3855805269327524e-05   4.4882654220896256e-05   4.4111428908014931e-05   4.3986002797466017e-05   4.3804618216732760e-05   4.2490516194621954e-05   4.2947160345395755e-05   4.0453677456193350e-05   4.1571998759614311e-05   3.7953781474379017e-05   3.9731966299155020e-05   3.5086928825540368e-05   3.7497753791249231e-05   3.1963336233047473e-05   3.4955192508494917e-05   2.8703105220552462e-05   3.2201955592697445e-05   2.5431609861238974e-05   2.9343807017279033e-05   2.2274674138887861e-05   2.6490546663153379e-05   1.9353702549800483e-05   2.3751817164704416e-05   1.6780892420905588e-05   2.1232951342801472e-05   1.4654600242961035e-05   1.9031032702224739e-05   1.3055046357865842e-05   1.7231247860673617e-05   1.2041831165602138e-05   1.5903101682844053e-05   1.1655290696941832e-05   1.5099999707960165e-05   1.6745153863293068e-05   2.0018119549825813e-05   1.7402469749417547e-05   2.0176299617421850e-05   1.8486450474004784e-05   2.0692684118914019e-05   1.9950977488695825e-05   2.1546687587625003e-05   2.1739006803649986e-05   2.2706136401220724e-05   2.3781561170290983e-05   2.4126774167543527e-05   2.6000198069215209e-05   2.5754062889649239e-05   2.8309770444160096e-05   2.7525405656291684e-05   3.0621613295974529e-05   2.9372649799658250e-05   3.2846939500034393e-05   3.1224743685121539e-05   3.4900260494497746e-05   3.3010472708657236e-05   3.6702681549828620e-05   3.4661190960011136e-05   3.8184940937894900e-05   3.6113452813598633e-05   3.9290076355809057e-05   3.7311445937890309e-05   3.9975616972112921e-05   3.8209132475506239e-05   4.0215217557972648e-05   3.8772015757961275e-05   3.9999672383626175e-05   3.8978464270536673e-05   3.9337270225983720e-05   3.8820541689690307e-05   3.8253477040795593e-05   3.8304310905010820e-05   3.6789958600690108e-05   3.7449600257651811e-05   3.5002980660877334e-05   3.6289241016764466e-05   3.2961247938358522e-05   3.4867805618915515e-05   3.0743264306447849e-05   3.3239895703869817e-05   2.8434313935647229e-05   3.1468046873185249e-05   2.6123175240901465e-05   2.9620332856823241e-05   2.3898684783314916e-05   2.7767764771481159e-05   2.1846266357043261e-05   2.5981589709274530e-05   2.0044540529521072e-05   2.4330591200064922e-05   1.8562178765785459e-05   2.2878466088989639e-05   1.7455375841115196e-05   2.1681284863652521e-05   1.6766720218410164e-05   2.0784787169661522e-05   1.6524613684968988e-05   2.0226871163298037e-05   2.2041597558912574e-05   2.5531652504755224e-05   2.2442786217284384e-05   2.5528942226772055e-05   2.3076555222318222e-05   2.5680655086936673e-05   2.3913841972355439e-05   2.5978619703554959e-05   2.4922197335409636e-05   2.6411624848148675e-05   2.6062562921511795e-05   2.6963226461690413e-05   2.7291032439436005e-05   2.7612339701461269e-05   2.8560424598009304e-05   2.8334036091504128e-05   2.9822014853419022e-05   2.9100549585435357e-05   3.1027372629349495e-05   2.9882380481013377e-05   3.2130213558907699e-05   3.0649446362664208e-05   3.3088179470236279e-05   3.1372242799313699e-05   3.3864470076035348e-05   3.2022976204984781e-05   3.4429260959301658e-05   3.2576629238941864e-05   3.4760852719364330e-05   3.3011919447815430e-05   3.4846507153972306e-05   3.3312114827131997e-05   3.4682938535636019e-05   3.3465675030641456e-05   3.4276441272760616e-05   3.3466693526128827e-05   3.3642649145117042e-05   3.3315123650588455e-05   3.2805935346611770e-05   3.3016779893659212e-05   3.1798476198236675e-05   3.2583114496711777e-05   3.0659014011710682e-05   3.2030778276031834e-05   2.9431365588278410e-05   3.1380983146675468e-05   2.8162731637074922e-05   3.0658691805139159e-05   2.6901868600322004e-05   2.9891666963708531e-05   2.5697188479521387e-05   2.9109417513924318e-05   2.4594857828911785e-05   2.8342080012955822e-05   2.3636985187384820e-05   2.7619267162205340e-05   2.2860037270245854e-05   2.6968897159514905e-05   2.2293693780063806e-05   2.6416012816926329e-05   2.1960314611640735e-05   2.5981424471123070e-05   2.1874660600868537e-05   2.5686649795814149e-05   2.7611126720032132e-05   3.1169831747290548e-05   2.7744138853329775e-05   3.1002324002138188e-05   2.7907014304658487e-05   3.0779767535919422e-05   2.8087890565011703e-05   3.0506948641107568e-05   2.8279881548330141e-05   3.0194362201983374e-05   2.8475405019300583e-05   2.9854091502753707e-05   2.8666837150931970e-05   2.9499302638174531e-05   2.8846796292767118e-05   2.9143672584200291e-05   2.9008386878077972e-05   2.8800869628364368e-05   2.9145433245511518e-05   2.8484047684686424e-05   2.9252701370667420e-05   2.8205356287742431e-05   2.9326094764917776e-05   2.7975481859616904e-05   2.9362811680496725e-05   2.7803239851879062e-05   2.9361454435296711e-05   2.7695235922053437e-05   2.9322085194206495e-05   2.7655610849479559e-05   2.9246225500615845e-05   2.7685879891245080e-05   2.9136799404121062e-05   2.7784873165619985e-05   2.8998022324366225e-05   2.7948779532083097e-05   2.8835239870434860e-05   2.8171292381450941e-05   2.8654722671135343e-05   2.8443851844746107e-05   2.8463424798616566e-05   2.8755974296458515e-05   2.8268714508232759e-05   2.9095656781501484e-05   2.8078086722259278e-05   2.9449841225663000e-05   2.7898867017196894e-05   2.9804920993668412e-05   2.7737917262805667e-05   3.0147270342852479e-05   2.7601354811906007e-05   3.0463775052100007e-05   2.7494303152304540e-05   3.0742339113247064e-05   2.7420706018487744e-05   3.0972337566443230e-05   2.7383256787501580e-05   3.1144982900633739e-05   2.7383486364439664e-05   3.1253599260737753e-05   2.7422003494156142e-05   3.1293591636024338e-05   2.7499777406676613e-05   3.1269521855392492e-05   3.3239817694863729e-05   3.6715948301355556e-05   3.3102948150135495e-05   3.6386000610782963e-05   3.2792092674265465e-05   3.5794094063331156e-05   3.2312531820232240e-05   3.4957793601674377e-05   3.1682921582451973e-05   3.3909113925972982e-05   3.0927358743188127e-05   3.2688340932001363e-05   3.0074796954760730e-05   3.1342436135281535e-05   2.9157959874350677e-05   2.9923159571427067e-05   2.8212077884783984e-05   2.8485067621007700e-05   2.7273517449504365e-05   2.7083421057305323e-05   2.6378370308871468e-05   2.5772070182804948e-05   2.5561059217958606e-05   2.4601392364216926e-05   2.4853012280279774e-05   2.3616359985969699e-05   2.4281454872691356e-05   2.2854813700723163e-05   2.3868364217610572e-05   2.2346008307471531e-05   2.3629625996470776e-05   2.2109487910554174e-05   2.3574425007399057e-05   2.2154334085349502e-05   2.3704893057422882e-05   2.2478816244804397e-05   2.4016027446853277e-05   2.3070457840133933e-05   2.4495882971378439e-05   2.3906516013915680e-05   2.5126029767672264e-05   2.4954856439168826e-05   2.5882258996802070e-05   2.6175189897239595e-05   2.6735508774652356e-05   2.7520623186393224e-05   2.7652974494179960e-05   2.8939464625723870e-05   2.8599361530552503e-05   3.0377213987992508e-05   2.9538235351689815e-05   3.1778658297948223e-05   3.0433425261710881e-05   3.3089988885207242e-05   3.1250442390140668e-05   3.4260852802846916e-05   3.1957873672052983e-05   3.5246257015078722e-05   3.2528699972048183e-05   3.6008277889843140e-05   3.2941526015916726e-05   3.6517271813080584e-05   3.3183882420056408e-05   3.6760904129852529e-05   3.8711395128393854e-05   4.1956859708273757e-05   3.8313375672716070e-05   4.1473020554919956e-05   3.7544066761071665e-05   4.0530916761401839e-05   3.6425331516040007e-05   3.9160162193033185e-05   3.5000449753718023e-05   3.7413208796976917e-05   3.3324146972272034e-05   3.5357128572903504e-05   3.1460799415223817e-05   3.3070949053133756e-05   2.9481982354065082e-05   3.0642549034467421e-05   2.7463729540188041e-05   2.8165264462870584e-05   2.5483606889787610e-05   2.5734298383298892e-05   2.3617724028259799e-05   2.3443065190362673e-05   2.1937803377127156e-05   2.1379604881851164e-05   2.0508420414482443e-05   1.9623202974692699e-05   1.9384520646601959e-05   1.8241345492556856e-05   1.8609307910670960e-05   1.7287126291083100e-05   1.8212584502807870e-05   1.6797206789090156e-05   1.8209606467490513e-05   1.6790406904159123e-05   1.8600497733646800e-05   1.7266981637419507e-05   1.9370245381456330e-05   1.8208611320770920e-05   2.0489276011120284e-05   1.9579106056733660e-05   2.1914590852483687e-05   2.1325797387076612e-05   2.3591415810443232e-05   2.3381563744356818e-05   2.5455303009455447e-05   2.5667411730302525e-05   2.7434603510985153e-05   2.8095513591703720e-05   2.9453217637303125e-05   3.0572583185503623e-05   3.1433520450407762e-05   3.3003458966708256e-05   3.3299355361234899e-05   3.5294754034209804e-05   3.4978986778946521e-05   3.7358431586837127e-05   3.6407900541939114e-05   3.9115171256659896e-05   3.7531348602591824e-05   4.0497425442558606e-05   3.8306650926285490e-05   4.1451773122028745e-05   3.8708622658991678e-05   4.1949732411303021e-05   4.3815591317936835e-05   4.6691164838317886e-05   4.3175240002804217e-05   4.6067862484356529e-05   4.1980350088909490e-05   4.4808178938373567e-05   4.0268211326105454e-05   4.2952571950155217e-05   3.8104920551784458e-05   4.0572030167527734e-05   3.5573612782220582e-05   3.7757947775437733e-05   3.2771553048466745e-05   3.4618459727737737e-05   2.9806405931966049e-05   3.1274221886368551e-05   2.6792111194549018e-05   2.7853759349570838e-05   2.3844507544767130e-05   2.4488521706837158e-05   2.1076878381902136e-05   2.1307830888961476e-05   1.8595594717751121e-05   1.8433912937439616e-05   1.6496024537030539e-05   1.5977202849552910e-05   1.4858866190324639e-05   1.4032102125771072e-05   1.3747046498278617e-05   1.2673351882602060e-05   1.3203302384836760e-05   1.1953161040184116e-05   1.3248538617779635e-05   1.1899200168179121e-05   1.3881024483196962e-05   1.2513538296507566e-05   1.5076460047077720e-05   1.3772563714043944e-05   1.6788909291719237e-05   1.5627891906154585e-05   1.8952564163104516e-05   1.8008225774750059e-05   2.1484271748025795e-05   2.0822096584264829e-05   2.4286727711947431e-05   2.3961380064485973e-05   2.7252213973102941e-05   2.7305452063155183e-05   3.0266738381307656e-05   3.0725823254962941e-05   3.3214419527999231e-05   3.4091073790343427e-05   3.5981950643971725e-05   3.7271897521091223e-05   3.8462971991012531e-05   4.0146062743370414e-05   4.0562182628080006e-05   4.2603102858882136e-05   4.2199052968979043e-05   4.4548583660747332e-05   4.3311171032568729e-05   4.5907483846708649e-05   4.3861745045525592e-05   4.6636579051930434e-05   4.8356244290940174e-05   5.0736936445758519e-05   4.7501726297602042e-05   4.9993936523053173e-05   4.5930483390901901e-05   4.8461491787354034e-05   4.3693489504958150e-05   4.6189281995111535e-05   4.0877003629539278e-05   4.3264206611661961e-05   3.7589274430696743e-05   3.9798570322203208e-05   3.3956655930342185e-05   3.5925534273706086e-05   3.0118744932709782e-05   3.1793932983309057e-05   2.6223026990149830e-05   2.7562542755780052e-05   2.2419213294050543e-05   2.3393974699783888e-05   1.8853487802583094e-05   1.9448423649341825e-05   1.5662888028725173e-05   1.5877511827768384e-05   1.2970037026828255e-05   1.2818462773464240e-05   1.0878429725965766e-05   1.0388828747604594e-05   9.4684548828280294e-06   8.6819739530123971e-06   8.7943053916414957e-06   7.7634870976408867e-06   8.8818954715494116e-06   7.6686612425239472e-06   9.7278645674951852e-06   8.4011378910007634e-06   1.1299706083820869e-05   9.9327675167075524e-06   1.3537015904580468e-05   1.2204691933376053e-05   1.6353812709464848e-05   1.5129606883327868e-05   1.9641841042176228e-05   1.8595117767910320e-05   2.3274730538796785e-05   2.2468059305674201e-05   2.7112852129077472e-05   2.6599612719019792e-05   3.1008685575153537e-05   3.0831023309480760e-05   3.4812493187786628e-05   3.4999698313428067e-05   3.8378082249625497e-05   3.8945450860307863e-05   4.1568433800172168e-05   4.2516651535789192e-05   4.4260981719798024e-05   4.5576054570967555e-05   4.6352374621552617e-05   4.8006100240931930e-05   4.7762767263117421e-05   4.9713178624888986e-05   4.8445256968239718e-05   5.0641316077445228e-05   5.2158844022161289e-05   5.3938708744330136e-05   5.1126577515394080e-05   5.3100362664777925e-05   4.9242680329497437e-05   5.1350452025234857e-05   4.6569538968331852e-05   4.8745904501832816e-05   4.3210157331668874e-05   4.5386288644199751e-05   3.9293648150634561e-05   4.1400596937939769e-05   3.4970540129664538e-05   3.6941969070055454e-05   3.0406975800812674e-05   3.2181736306993108e-05   2.5778333501435452e-05   2.7302827492155524e-05   2.1262492171626846e-05   2.2492735027078130e-05   1.7032997386015048e-05   1.7936307367404822e-05   1.3252392177135296e-05   1.3808644378197166e-05   1.0065969954172798e-05   1.0268368108575369e-05   7.5961902133770239e-06   7.4515271922493124e-06   5.9379718945128671e-06   5.4663688834318087e-06   5.1550452761052939e-06   4.3891795359536179e-06   5.2775025166801464e-06   4.2613533622373348e-06   6.3006408620238826e-06   5.0878021419608054e-06   8.1851428870437535e-06   6.8367670128134901e-06   1.0858586814234215e-05   9.4410395597594056e-06   1.4218228920876225e-05   1.2800545203471283e-05   1.8134951278381086e-05   1.6786189462807844e-05   2.2458223434853648e-05   2.1244819057479733e-05   2.7021887841563311e-05   2.6005106925047385e-05   3.1650547239220685e-05   3.0884134760274769e-05   3.6166308893244722e-05   3.5694420101856040e-05   4.0395626196986593e-05   4.0251118415811903e-05   4.4175973656861750e-05   4.4379124784168367e-05   4.7362101403627464e-05   4.7919804795626686e-05   4.9831677463810071e-05   5.0737120948216963e-05   5.1490377438181177e-05   5.2722606981256558e-05   5.2283040874159249e-05   5.3810035450086160e-05   5.5077242756219946e-05   5.6173449689424491e-05   5.3910491183962458e-05   5.5267764210609024e-05   5.1789661813985452e-05   5.3364035531415185e-05   4.8785838630602538e-05   5.0524188554873381e-05   4.5014714390058916e-05   4.6856731255732453e-05   4.0621221387568857e-05   4.2502476123207952e-05   3.5774223698512080e-05   3.7628722462114194e-05   3.0660003397173894e-05   3.2422750261162979e-05   2.5475105200801838e-05   2.7084614281417023e-05   2.0418786761878648e-05   2.1819452958275067e-05   1.5685363460233274e-05   1.6829602944686144e-05   1.1456741930922203e-05   1.2306821979959077e-05   7.8954297130721591e-06   8.4249188800226330e-06   5.1382900476758345e-06   5.3330737440300556e-06   3.29128204