<?xml version="1.0"?>
<VTKFile type="UnstructuredGrid"  version="0.1"  >
<UnstructuredGrid>
<Piece  NumberOfPoints="25" NumberOfCells="32">
<Points>
<DataArray  type="Float64"  NumberOfComponents="3"  format="ascii">0 0 0  0.25 0 0  0.5 0 0  0.75 0 0  1 0 0  0 0.25 0  0.25 0.25 0  0.5 0.25 0  0.75 0.25 0  1 0.25 0  0 0.5 0  0.25 0.5 0  0.5 0.5 0  0.75 0.5 0  1 0.5 0  0 0.75 0  0.25 0.75 0  0.5 0.75 0  0.75 0.75 0  1 0.75 0  0 1 0  0.25 1 0  0.5 1 0  0.75 1 0  1 1 0  </DataArray>
</Points>
<Cells>
<DataArray  type="UInt32"  Name="connectivity"  format="ascii">0 1 6  0 5 6  1 2 7  1 6 7  2 3 8  2 7 8  3 4 9  3 8 9  5 6 11  5 10 11  6 7 12  6 11 12  7 8 13  7 12 13  8 9 14  8 13 14  10 11 16  10 15 16  11 12 17  11 16 17  12 13 18  12 17 18  13 14 19  13 18 19  15 16 21  15 20 21  16 17 22  16 21 22  17 18 23  17 22 23  18 19 24  18 23 24  </DataArray>
<DataArray  type="UInt32"  Name="offsets"  format="ascii">3 6 9 12 15 18 21 24 27 30 33 36 39 42 45 48 51 54 57 60 63 66 69 72 75 78 81 84 87 90 93 96 </DataArray>
<DataArray  type="UInt8"  Name="types"  format="ascii">5 5 5 5 5 5 5 5 5 5 5 5 5 5 5 5 5 5 5 5 5 5 5 5 5 5 5 5 5 5 5 5 </DataArray>
</Cells>
<CellData  Scalars="f_64895"> 
<DataArray  type="Float64"  Name="f_64895"  format="ascii">2.5075796200788049e-05   2.2423358892124219e-05   4.4707621212637480e-06   1.1432662195511260e-05   2.2870227499429210e-05   2.0470023038164108e-05   4.4114347033791479e-05   3.3649303626617395e-05   8.8870032240564061e-06   2.4543242501720129e-06   2.5681020817751040e-05   2.4209507672010101e-05   2.9436989500634656e-05   3.3252678571041445e-05   1.2062213137366772e-05   1.2421649151975851e-05   2.0555819799213447e-05   2.7971040822226889e-05   3.1354241555075176e-05   2.8953942562390658e-05   1.9947763122326683e-05   1.7900408887578803e-05   8.6537555269370928e-06   1.8128900901109501e-05   3.9211646679029209e-05   4.9113953612628494e-05   1.1085136686839332e-05   1.5950652972365263e-05   1.4775994610712228e-05   4.5509185725611948e-06   4.3130395320354118e-05   3.9904647302021055e-05   </DataArray> 
</CellData> 
</Piece>
</UnstructuredGrid>
</VTKFile>