<?xml version="1.0"?>
<VTKFile type="UnstructuredGrid"  version="0.1"  >
<UnstructuredGrid>
<Piece  NumberOfPoints="25" NumberOfCells="32">
<Points>
<DataArray  type="Float64"  NumberOfComponents="3"  format="ascii">0 0 0  0.25 0 0  0.5 0 0  0.75 0 0  1 0 0  0 0.25 0  0.25 0.25 0  0.5 0.25 0  0.75 0.25 0  1 0.25 0  0 0.5 0  0.25 0.5 0  0.5 0.5 0  0.75 0.5 0  1 0.5 0  0 0.75 0  0.25 0.75 0  0.5 0.75 0  0.75 0.75 0  1 0.75 0  0 1 0  0.25 1 0  0.5 1 0  0.75 1 0  1 1 0  </DataArray>
</Points>
<Cells>
<DataArray  type="UInt32"  Name="connectivity"  format="ascii">0 1 6  0 5 6  1 2 7  1 6 7  2 3 8  2 7 8  3 4 9  3 8 9  5 6 11  5 10 11  6 7 12  6 11 12  7 8 13  7 12 13  8 9 14  8 13 14  10 11 16  10 15 16  11 12 17  11 16 17  12 13 18  12 17 18  13 14 19  13 18 19  15 16 21  15 20 21  16 17 22  16 21 22  17 18 23  17 22 23  18 19 24  18 23 24  </DataArray>
<DataArray  type="UInt32"  Name="offsets"  format="ascii">3 6 9 12 15 18 21 24 27 30 33 36 39 42 45 48 51 54 57 60 63 66 69 72 75 78 81 84 87 90 93 96 </DataArray>
<DataArray  type="UInt8"  Name="types"  format="ascii">5 5 5 5 5 5 5 5 5 5 5 5 5 5 5 5 5 5 5 5 5 5 5 5 5 5 5 5 5 5 5 5 </DataArray>
</Cells>
<CellData  Scalars="f_37515"> 
<DataArray  type="Float64"  Name="f_37515"  format="ascii">4.2401013252807871e-39   4.2040249352324834e-39   5.6165058858624847e-38   5.6201135248673154e-38   3.4846468819948919e-39   3.4846468819948919e-39   1.3265127222820951e-40   1.3265127222820951e-40   1.9591572513704811e-38   1.9591572513704811e-38   1.1561068571889344e-38   1.1561068571889344e-38   2.2576226138839499e-39   2.2576226138839499e-39   1.3188597642689283e-39   1.3188597642689283e-39   2.5305781163535358e-39   2.5305781163535358e-39   3.6134716752165185e-39   3.6134716752165185e-39   1.9430860395428321e-38   1.9430860395428321e-38   1.0203944017554590e-39   1.0203944017554590e-39   3.0101634851786032e-40   3.0101634851786032e-40   2.7856767167924029e-39   2.7856767167924029e-39   1.5152856866068566e-38   1.5152856866068566e-38   3.6040330270002801e-38   3.6040330270002801e-38   </DataArray> 
</CellData> 
</Piece>
</UnstructuredGrid>
</VTKFile>