<?xml version="1.0"?>
<VTKFile type="UnstructuredGrid"  version="0.1"  >
<UnstructuredGrid>
<Piece  NumberOfPoints="25" NumberOfCells="32">
<Points>
<DataArray  type="Float64"  NumberOfComponents="3"  format="ascii">0 0 0  0.25 0 0  0.5 0 0  0.75 0 0  1 0 0  0 0.25 0  0.25 0.25 0  0.5 0.25 0  0.75 0.25 0  1 0.25 0  0 0.5 0  0.25 0.5 0  0.5 0.5 0  0.75 0.5 0  1 0.5 0  0 0.75 0  0.25 0.75 0  0.5 0.75 0  0.75 0.75 0  1 0.75 0  0 1 0  0.25 1 0  0.5 1 0  0.75 1 0  1 1 0  </DataArray>
</Points>
<Cells>
<DataArray  type="UInt32"  Name="connectivity"  format="ascii">0 1 6  0 5 6  1 2 7  1 6 7  2 3 8  2 7 8  3 4 9  3 8 9  5 6 11  5 10 11  6 7 12  6 11 12  7 8 13  7 12 13  8 9 14  8 13 14  10 11 16  10 15 16  11 12 17  11 16 17  12 13 18  12 17 18  13 14 19  13 18 19  15 16 21  15 20 21  16 17 22  16 21 22  17 18 23  17 22 23  18 19 24  18 23 24  </DataArray>
<DataArray  type="UInt32"  Name="offsets"  format="ascii">3 6 9 12 15 18 21 24 27 30 33 36 39 42 45 48 51 54 57 60 63 66 69 72 75 78 81 84 87 90 93 96 </DataArray>
<DataArray  type="UInt8"  Name="types"  format="ascii">5 5 5 5 5 5 5 5 5 5 5 5 5 5 5 5 5 5 5 5 5 5 5 5 5 5 5 5 5 5 5 5 </DataArray>
</Cells>
<CellData  Scalars="f_42089"> 
<DataArray  type="Float64"  Name="f_42089"  format="ascii">1.8076490905978280e-36   1.8076490905978280e-36   7.7452016670846226e-36   7.7452016670846226e-36   7.7321406187421531e-36   7.7321406187421531e-36   3.5526051491518057e-36   3.5526051491518057e-36   8.8815128728795142e-37   8.8815128728795142e-37   4.0373258994328204e-36   4.0350170104697288e-36   8.6725360993999938e-37   8.6956249890309082e-37   1.3374513502689127e-36   1.3374513502689127e-36   5.2244193369879499e-38   5.2244193369879499e-38   4.4639630027508007e-36   4.4616541137877091e-36   6.4658883565793647e-36   6.4681972455424556e-36   2.1733584441869845e-36   2.1733584441869845e-36   1.7554048972279488e-36   1.7554048972279488e-36   2.1739933886518347e-36   2.1733584441869845e-36   4.1795354695903601e-36   4.1801704140552106e-36   2.4998846527487313e-36   2.4998846527487313e-36   </DataArray> 
</CellData> 
</Piece>
</UnstructuredGrid>
</VTKFile>