<?xml version="1.0"?>
<VTKFile type="UnstructuredGrid"  version="0.1"  >
<UnstructuredGrid>
<Piece  NumberOfPoints="1089" NumberOfCells="2048">
<Points>
<DataArray  type="Float64"  NumberOfComponents="3"  format="ascii">0 0 0  0.03125 0 0  0.0625 0 0  0.09375 0 0  0.125 0 0  0.15625 0 0  0.1875 0 0  0.21875 0 0  0.25 0 0  0.28125 0 0  0.3125 0 0  0.34375 0 0  0.375 0 0  0.40625 0 0  0.4375 0 0  0.46875 0 0  0.5 0 0  0.53125 0 0  0.5625 0 0  0.59375 0 0  0.625 0 0  0.65625 0 0  0.6875 0 0  0.71875 0 0  0.75 0 0  0.78125 0 0  0.8125 0 0  0.84375 0 0  0.875 0 0  0.90625 0 0  0.9375 0 0  0.96875 0 0  1 0 0  0 0.03125 0  0.03125 0.03125 0  0.0625 0.03125 0  0.09375 0.03125 0  0.125 0.03125 0  0.15625 0.03125 0  0.1875 0.03125 0  0.21875 0.03125 0  0.25 0.03125 0  0.28125 0.03125 0  0.3125 0.03125 0  0.34375 0.03125 0  0.375 0.03125 0  0.40625 0.03125 0  0.4375 0.03125 0  0.46875 0.03125 0  0.5 0.03125 0  0.53125 0.03125 0  0.5625 0.03125 0  0.59375 0.03125 0  0.625 0.03125 0  0.65625 0.03125 0  0.6875 0.03125 0  0.71875 0.03125 0  0.75 0.03125 0  0.78125 0.03125 0  0.8125 0.03125 0  0.84375 0.03125 0  0.875 0.03125 0  0.90625 0.03125 0  0.9375 0.03125 0  0.96875 0.03125 0  1 0.03125 0  0 0.0625 0  0.03125 0.0625 0  0.0625 0.0625 0  0.09375 0.0625 0  0.125 0.0625 0  0.15625 0.0625 0  0.1875 0.0625 0  0.21875 0.0625 0  0.25 0.0625 0  0.28125 0.0625 0  0.3125 0.0625 0  0.34375 0.0625 0  0.375 0.0625 0  0.40625 0.0625 0  0.4375 0.0625 0  0.46875 0.0625 0  0.5 0.0625 0  0.53125 0.0625 0  0.5625 0.0625 0  0.59375 0.0625 0  0.625 0.0625 0  0.65625 0.0625 0  0.6875 0.0625 0  0.71875 0.0625 0  0.75 0.0625 0  0.78125 0.0625 0  0.8125 0.0625 0  0.84375 0.0625 0  0.875 0.0625 0  0.90625 0.0625 0  0.9375 0.0625 0  0.96875 0.0625 0  1 0.0625 0  0 0.09375 0  0.03125 0.09375 0  0.0625 0.09375 0  0.09375 0.09375 0  0.125 0.09375 0  0.15625 0.09375 0  0.1875 0.09375 0  0.21875 0.09375 0  0.25 0.09375 0  0.28125 0.09375 0  0.3125 0.09375 0  0.34375 0.09375 0  0.375 0.09375 0  0.40625 0.09375 0  0.4375 0.09375 0  0.46875 0.09375 0  0.5 0.09375 0  0.53125 0.09375 0  0.5625 0.09375 0  0.59375 0.09375 0  0.625 0.09375 0  0.65625 0.09375 0  0.6875 0.09375 0  0.71875 0.09375 0  0.75 0.09375 0  0.78125 0.09375 0  0.8125 0.09375 0  0.84375 0.09375 0  0.875 0.09375 0  0.90625 0.09375 0  0.9375 0.09375 0  0.96875 0.09375 0  1 0.09375 0  0 0.125 0  0.03125 0.125 0  0.0625 0.125 0  0.09375 0.125 0  0.125 0.125 0  0.15625 0.125 0  0.1875 0.125 0  0.21875 0.125 0  0.25 0.125 0  0.28125 0.125 0  0.3125 0.125 0  0.34375 0.125 0  0.375 0.125 0  0.40625 0.125 0  0.4375 0.125 0  0.46875 0.125 0  0.5 0.125 0  0.53125 0.125 0  0.5625 0.125 0  0.59375 0.125 0  0.625 0.125 0  0.65625 0.125 0  0.6875 0.125 0  0.71875 0.125 0  0.75 0.125 0  0.78125 0.125 0  0.8125 0.125 0  0.84375 0.125 0  0.875 0.125 0  0.90625 0.125 0  0.9375 0.125 0  0.96875 0.125 0  1 0.125 0  0 0.15625 0  0.03125 0.15625 0  0.0625 0.15625 0  0.09375 0.15625 0  0.125 0.15625 0  0.15625 0.15625 0  0.1875 0.15625 0  0.21875 0.15625 0  0.25 0.15625 0  0.28125 0.15625 0  0.3125 0.15625 0  0.34375 0.15625 0  0.375 0.15625 0  0.40625 0.15625 0  0.4375 0.15625 0  0.46875 0.15625 0  0.5 0.15625 0  0.53125 0.15625 0  0.5625 0.15625 0  0.59375 0.15625 0  0.625 0.15625 0  0.65625 0.15625 0  0.6875 0.15625 0  0.71875 0.15625 0  0.75 0.15625 0  0.78125 0.15625 0  0.8125 0.15625 0  0.84375 0.15625 0  0.875 0.15625 0  0.90625 0.15625 0  0.9375 0.15625 0  0.96875 0.15625 0  1 0.15625 0  0 0.1875 0  0.03125 0.1875 0  0.0625 0.1875 0  0.09375 0.1875 0  0.125 0.1875 0  0.15625 0.1875 0  0.1875 0.1875 0  0.21875 0.1875 0  0.25 0.1875 0  0.28125 0.1875 0  0.3125 0.1875 0  0.34375 0.1875 0  0.375 0.1875 0  0.40625 0.1875 0  0.4375 0.1875 0  0.46875 0.1875 0  0.5 0.1875 0  0.53125 0.1875 0  0.5625 0.1875 0  0.59375 0.1875 0  0.625 0.1875 0  0.65625 0.1875 0  0.6875 0.1875 0  0.71875 0.1875 0  0.75 0.1875 0  0.78125 0.1875 0  0.8125 0.1875 0  0.84375 0.1875 0  0.875 0.1875 0  0.90625 0.1875 0  0.9375 0.1875 0  0.96875 0.1875 0  1 0.1875 0  0 0.21875 0  0.03125 0.21875 0  0.0625 0.21875 0  0.09375 0.21875 0  0.125 0.21875 0  0.15625 0.21875 0  0.1875 0.21875 0  0.21875 0.21875 0  0.25 0.21875 0  0.28125 0.21875 0  0.3125 0.21875 0  0.34375 0.21875 0  0.375 0.21875 0  0.40625 0.21875 0  0.4375 0.21875 0  0.46875 0.21875 0  0.5 0.21875 0  0.53125 0.21875 0  0.5625 0.21875 0  0.59375 0.21875 0  0.625 0.21875 0  0.65625 0.21875 0  0.6875 0.21875 0  0.71875 0.21875 0  0.75 0.21875 0  0.78125 0.21875 0  0.8125 0.21875 0  0.84375 0.21875 0  0.875 0.21875 0  0.90625 0.21875 0  0.9375 0.21875 0  0.96875 0.21875 0  1 0.21875 0  0 0.25 0  0.03125 0.25 0  0.0625 0.25 0  0.09375 0.25 0  0.125 0.25 0  0.15625 0.25 0  0.1875 0.25 0  0.21875 0.25 0  0.25 0.25 0  0.28125 0.25 0  0.3125 0.25 0  0.34375 0.25 0  0.375 0.25 0  0.40625 0.25 0  0.4375 0.25 0  0.46875 0.25 0  0.5 0.25 0  0.53125 0.25 0  0.5625 0.25 0  0.59375 0.25 0  0.625 0.25 0  0.65625 0.25 0  0.6875 0.25 0  0.71875 0.25 0  0.75 0.25 0  0.78125 0.25 0  0.8125 0.25 0  0.84375 0.25 0  0.875 0.25 0  0.90625 0.25 0  0.9375 0.25 0  0.96875 0.25 0  1 0.25 0  0 0.28125 0  0.03125 0.28125 0  0.0625 0.28125 0  0.09375 0.28125 0  0.125 0.28125 0  0.15625 0.28125 0  0.1875 0.28125 0  0.21875 0.28125 0  0.25 0.28125 0  0.28125 0.28125 0  0.3125 0.28125 0  0.34375 0.28125 0  0.375 0.28125 0  0.40625 0.28125 0  0.4375 0.28125 0  0.46875 0.28125 0  0.5 0.28125 0  0.53125 0.28125 0  0.5625 0.28125 0  0.59375 0.28125 0  0.625 0.28125 0  0.65625 0.28125 0  0.6875 0.28125 0  0.71875 0.28125 0  0.75 0.28125 0  0.78125 0.28125 0  0.8125 0.28125 0  0.84375 0.28125 0  0.875 0.28125 0  0.90625 0.28125 0  0.9375 0.28125 0  0.96875 0.28125 0  1 0.28125 0  0 0.3125 0  0.03125 0.3125 0  0.0625 0.3125 0  0.09375 0.3125 0  0.125 0.3125 0  0.15625 0.3125 0  0.1875 0.3125 0  0.21875 0.3125 0  0.25 0.3125 0  0.28125 0.3125 0  0.3125 0.3125 0  0.34375 0.3125 0  0.375 0.3125 0  0.40625 0.3125 0  0.4375 0.3125 0  0.46875 0.3125 0  0.5 0.3125 0  0.53125 0.3125 0  0.5625 0.3125 0  0.59375 0.3125 0  0.625 0.3125 0  0.65625 0.3125 0  0.6875 0.3125 0  0.71875 0.3125 0  0.75 0.3125 0  0.78125 0.3125 0  0.8125 0.3125 0  0.84375 0.3125 0  0.875 0.3125 0  0.90625 0.3125 0  0.9375 0.3125 0  0.96875 0.3125 0  1 0.3125 0  0 0.34375 0  0.03125 0.34375 0  0.0625 0.34375 0  0.09375 0.34375 0  0.125 0.34375 0  0.15625 0.34375 0  0.1875 0.34375 0  0.21875 0.34375 0  0.25 0.34375 0  0.28125 0.34375 0  0.3125 0.34375 0  0.34375 0.34375 0  0.375 0.34375 0  0.40625 0.34375 0  0.4375 0.34375 0  0.46875 0.34375 0  0.5 0.34375 0  0.53125 0.34375 0  0.5625 0.34375 0  0.59375 0.34375 0  0.625 0.34375 0  0.65625 0.34375 0  0.6875 0.34375 0  0.71875 0.34375 0  0.75 0.34375 0  0.78125 0.34375 0  0.8125 0.34375 0  0.84375 0.34375 0  0.875 0.34375 0  0.90625 0.34375 0  0.9375 0.34375 0  0.96875 0.34375 0  1 0.34375 0  0 0.375 0  0.03125 0.375 0  0.0625 0.375 0  0.09375 0.375 0  0.125 0.375 0  0.15625 0.375 0  0.1875 0.375 0  0.21875 0.375 0  0.25 0.375 0  0.28125 0.375 0  0.3125 0.375 0  0.34375 0.375 0  0.375 0.375 0  0.40625 0.375 0  0.4375 0.375 0  0.46875 0.375 0  0.5 0.375 0  0.53125 0.375 0  0.5625 0.375 0  0.59375 0.375 0  0.625 0.375 0  0.65625 0.375 0  0.6875 0.375 0  0.71875 0.375 0  0.75 0.375 0  0.78125 0.375 0  0.8125 0.375 0  0.84375 0.375 0  0.875 0.375 0  0.90625 0.375 0  0.9375 0.375 0  0.96875 0.375 0  1 0.375 0  0 0.40625 0  0.03125 0.40625 0  0.0625 0.40625 0  0.09375 0.40625 0  0.125 0.40625 0  0.15625 0.40625 0  0.1875 0.40625 0  0.21875 0.40625 0  0.25 0.40625 0  0.28125 0.40625 0  0.3125 0.40625 0  0.34375 0.40625 0  0.375 0.40625 0  0.40625 0.40625 0  0.4375 0.40625 0  0.46875 0.40625 0  0.5 0.40625 0  0.53125 0.40625 0  0.5625 0.40625 0  0.59375 0.40625 0  0.625 0.40625 0  0.65625 0.40625 0  0.6875 0.40625 0  0.71875 0.40625 0  0.75 0.40625 0  0.78125 0.40625 0  0.8125 0.40625 0  0.84375 0.40625 0  0.875 0.40625 0  0.90625 0.40625 0  0.9375 0.40625 0  0.96875 0.40625 0  1 0.40625 0  0 0.4375 0  0.03125 0.4375 0  0.0625 0.4375 0  0.09375 0.4375 0  0.125 0.4375 0  0.15625 0.4375 0  0.1875 0.4375 0  0.21875 0.4375 0  0.25 0.4375 0  0.28125 0.4375 0  0.3125 0.4375 0  0.34375 0.4375 0  0.375 0.4375 0  0.40625 0.4375 0  0.4375 0.4375 0  0.46875 0.4375 0  0.5 0.4375 0  0.53125 0.4375 0  0.5625 0.4375 0  0.59375 0.4375 0  0.625 0.4375 0  0.65625 0.4375 0  0.6875 0.4375 0  0.71875 0.4375 0  0.75 0.4375 0  0.78125 0.4375 0  0.8125 0.4375 0  0.84375 0.4375 0  0.875 0.4375 0  0.90625 0.4375 0  0.9375 0.4375 0  0.96875 0.4375 0  1 0.4375 0  0 0.46875 0  0.03125 0.46875 0  0.0625 0.46875 0  0.09375 0.46875 0  0.125 0.46875 0  0.15625 0.46875 0  0.1875 0.46875 0  0.21875 0.46875 0  0.25 0.46875 0  0.28125 0.46875 0  0.3125 0.46875 0  0.34375 0.46875 0  0.375 0.46875 0  0.40625 0.46875 0  0.4375 0.46875 0  0.46875 0.46875 0  0.5 0.46875 0  0.53125 0.46875 0  0.5625 0.46875 0  0.59375 0.46875 0  0.625 0.46875 0  0.65625 0.46875 0  0.6875 0.46875 0  0.71875 0.46875 0  0.75 0.46875 0  0.78125 0.46875 0  0.8125 0.46875 0  0.84375 0.46875 0  0.875 0.46875 0  0.90625 0.46875 0  0.9375 0.46875 0  0.96875 0.46875 0  1 0.46875 0  0 0.5 0  0.03125 0.5 0  0.0625 0.5 0  0.09375 0.5 0  0.125 0.5 0  0.15625 0.5 0  0.1875 0.5 0  0.21875 0.5 0  0.25 0.5 0  0.28125 0.5 0  0.3125 0.5 0  0.34375 0.5 0  0.375 0.5 0  0.40625 0.5 0  0.4375 0.5 0  0.46875 0.5 0  0.5 0.5 0  0.53125 0.5 0  0.5625 0.5 0  0.59375 0.5 0  0.625 0.5 0  0.65625 0.5 0  0.6875 0.5 0  0.71875 0.5 0  0.75 0.5 0  0.78125 0.5 0  0.8125 0.5 0  0.84375 0.5 0  0.875 0.5 0  0.90625 0.5 0  0.9375 0.5 0  0.96875 0.5 0  1 0.5 0  0 0.53125 0  0.03125 0.53125 0  0.0625 0.53125 0  0.09375 0.53125 0  0.125 0.53125 0  0.15625 0.53125 0  0.1875 0.53125 0  0.21875 0.53125 0  0.25 0.53125 0  0.28125 0.53125 0  0.3125 0.53125 0  0.34375 0.53125 0  0.375 0.53125 0  0.40625 0.53125 0  0.4375 0.53125 0  0.46875 0.53125 0  0.5 0.53125 0  0.53125 0.53125 0  0.5625 0.53125 0  0.59375 0.53125 0  0.625 0.53125 0  0.65625 0.53125 0  0.6875 0.53125 0  0.71875 0.53125 0  0.75 0.53125 0  0.78125 0.531
[...]
<CellData  Scalars="f_41955"> 
<DataArray  type="Float64"  Name="f_41955"  format="ascii">4.6153333111569399e-05   4.5453647656833234e-05   4.5276524605453931e-05   4.4587001358770957e-05   4.3553915289884176e-05   4.2887241114852400e-05   4.1051678063059894e-05   4.0419786248522364e-05   3.7865953634617160e-05   3.7279516404440937e-05   3.4119154373713888e-05   3.3587153740537494e-05   2.9955258944472364e-05   2.9484631584927621e-05   2.5534278378778325e-05   2.5129642713891408e-05   2.1026106181519613e-05   2.0689580171620433e-05   1.6603988771480860e-05   1.6335104634575783e-05   1.2437867165800196e-05   1.2233585967717531e-05   8.6878457700222616e-06   8.5426711905731866e-06   5.4980392539676222e-06   5.4042261057154913e-06   2.9910339653582341e-06   2.9388834357515479e-06   1.2631767175235349e-06   1.2414069856995437e-06   3.8087199244464208e-07   3.7704997786879288e-07   3.7802984794652467e-07   3.7904749566943313e-07   1.2547625973262275e-06   1.2473393869052267e-06   2.9773803405701217e-06   2.9485726896858684e-06   5.4796855127908918e-06   5.4173834717534992e-06   8.6655166958049172e-06   8.5589088059980420e-06   1.2412443931314170e-05   1.2252432330420582e-05   1.6576473523898713e-05   1.6356023276075343e-05   2.0997581529597909e-05   2.0711990665001600e-05   2.5505863282151870e-05   2.5152943047444543e-05   2.9928062638002738e-05   2.9508220864232711e-05   3.4094230033110760e-05   3.3610454171773932e-05   3.7844253501286144e-05   3.7301993581332485e-05   4.1034011697950477e-05   4.0440966957336561e-05   4.3540912525408874e-05   4.2906728261068623e-05   4.5268604636838706e-05   4.4604486285669523e-05   4.6150681147809756e-05   4.5468922375536809e-05   4.5466751705845954e-05   4.3923214434892409e-05   4.4636205836299622e-05   4.3097941312556674e-05   4.2991461928949859e-05   4.1487940667934230e-05   4.0595805392404475e-05   3.9155173974334261e-05   3.7541341419097311e-05   3.6189356625658714e-05   3.3945483995711159e-05   3.2704526027429505e-05   2.9946451166175058e-05   2.8834663765708659e-05   2.5697955400003805e-05   2.4728547591116864e-05   2.1363296691051855e-05   2.0544033608215974e-05   1.7109086588658710e-05   1.6441989260527239e-05   1.3098844802512969e-05   1.2580110578516665e-05   9.4867146425360970e-06   9.1068614150671209e-06   6.4115388755213895e-06   6.1557676240492277e-06   3.9915236803464214e-06   3.8402854587298543e-06   2.3196957605780223e-06   2.2494413805333929e-06   1.4603271817198069e-06   1.4444108140135662e-06   1.4464653058283883e-06   1.4561672957366476e-06   2.2786627253437849e-06   2.2842923276638342e-06   3.9249559814918170e-06   3.8969916391910059e-06   6.3220938621165280e-06   6.2323171998258951e-06   9.3779680531213966e-06   9.2005479878406395e-06   1.2975152711935339e-05   1.2687637989552803e-05   1.6975416915795662e-05   1.6559598890103063e-05   2.1225036549098154e-05   2.0667648995235805e-05   2.5560701467731075e-05   2.4853930473851466e-05   2.9815790891270635e-05   2.8957575161836467e-05   3.3826775796454012e-05   3.2820885751616354e-05   3.7439502137770524e-05   3.6295394705979026e-05   4.0515113119965029e-05   3.9247567795795514e-05   4.2935382067777069e-05   4.1563932410609526e-05   4.4607248049917942e-05   4.3155431605221583e-05   4.5466366667561576e-05   4.3960831058427783e-05   4.3954394999614248e-05   4.1613838971246577e-05   4.3208283644183604e-05   4.0852225843034657e-05   4.1709234930486397e-05   3.9383668223388053e-05   3.9514937825868912e-05   3.7264669600277394e-05   3.6709780599986102e-05   3.4576730207561486e-05   3.3401623364593750e-05   3.1423218664142830e-05   2.9717657341133667e-05   2.7925399913913418e-05   2.5799517427207019e-05   2.4217773723265282e-05   2.1797838475581404e-05   2.0442904081566133e-05   1.7866465382743665e-05   1.6745938750678303e-05   1.4156539831441018e-05   1.3269029784572433e-05   1.0810691067950681e-05   1.0145869498059668e-05   7.9575540072081426e-06   7.4965518648090209e-06   5.7068253362223323e-06   5.4229567913095237e-06   4.1450475890605593e-06   4.0048346067069766e-06   3.3322831797192872e-06   3.2967411934564855e-06   3.2998061727643770e-06   3.3259414913667005e-06   4.0489004577137512e-06   4.0913618926159485e-06   5.5508104734479098e-06   5.5636317370529292e-06   7.7478463367869742e-06   7.6862122641105825e-06   1.0555600866415724e-05   1.0377569588189647e-05   1.3866193264066313e-05   1.3534308144209791e-05   1.7552414760913508e-05   1.7035144140856242e-05   2.1472616873910430e-05   2.0745566278978125e-05   2.5476154374859157e-05   2.4523004581315201e-05   2.9409173747798886e-05   2.8222308649999509e-05   3.3120524609541980e-05   3.1701324764715798e-05   3.6467566784886496e-05   3.4826357398642645e-05   3.9321649588353673e-05   3.7477305068125350e-05   4.1573052033448381e-05   3.9552272690853435e-05   4.3135192065491657e-05   4.0971482267244414e-05   4.3947937179807776e-05   4.1680330772837398e-05   4.1670099586969990e-05   3.8609890311027893e-05   4.1043830065241930e-05   3.7932005248236431e-05   3.9753269733934722e-05   3.6651553025274675e-05   3.7848082225065116e-05   3.4817788215923129e-05   3.5401553670234011e-05   3.2501245601912891e-05   3.2507779200399088e-05   2.9791026093549860e-05   2.9278046906991962e-05   2.6791369552402722e-05   2.5836559475430629e-05   2.3617645666374757e-05   2.2315659055232784e-05   2.0391917232024971e-05   1.8850739405066374e-05   1.7238246584893292e-05   1.5575041047735695e-05   1.4277925662465955e-05   1.2614529521010750e-05   1.1624813029902396e-05   1.0083053553205342e-05   9.3809570393764369e-06   8.0779692051018841e-06   7.6326732742013804e-06   6.6763980978922792e-06   6.4472269600360661e-06   5.9322634715420266e-06   5.8702477723000388e-06   5.8742179226144208e-06   5.9239763218353747e-06   6.5045424022609713e-06   6.6064096399858463e-06   7.7990587297765210e-06   7.8913784371299602e-06   9.7080589286692962e-06   9.7295531025885044e-06   1.2158215617092754e-05   1.2050339724593341e-05   1.5055399984114841e-05   1.4764593208132717e-05   1.8288299006181514e-05   1.7768043170225478e-05   2.1732692844067838e-05   2.0945300902869841e-05   2.5256227988811529e-05   2.4174293365271335e-05   2.8723502668065330e-05   2.7330953754791572e-05   3.2001269008215871e-05   3.0293988335890203e-05   3.4963551918787030e-05   3.2949536246835008e-05   3.7496487758452194e-05   3.5195543053555884e-05   3.9502696345712119e-05   3.6945679728127882e-05   4.0905017278106133e-05   3.8132656232526592e-05   4.1649465798230899e-05   3.8710803000278942e-05   3.8697332839722484e-05   3.5022474234866801e-05   3.8222044666733624e-05   3.4445345866532503e-05   3.7195249186825903e-05   3.3392800602698131e-05   3.5656462008024881e-05   3.1905319308786450e-05   3.3664892105281894e-05   3.0040124010874341e-05   3.1297161978289853e-05   2.7868972145440812e-05   2.8644359615912988e-05   2.5475393613845442e-05   2.5808534581581378e-05   2.2951476091965250e-05   2.2898773050060451e-05   2.0394322032317969e-05   2.0027002834766631e-05   1.7902313552773859e-05   1.7303689713678050e-05   1.5571328777720632e-05   1.4833590457522711e-05   1.3491055026161086e-05   1.2711725739780543e-05   1.1741540488793974e-05   1.1019727635638040e-05   1.0390116851806760e-05   9.8227020107977020e-06   9.4888110593131668e-06   9.1667263089692361e-06   9.0723456039938219e-06   9.0770788267312647e-06   9.1568041168083246e-06   9.5572674532695805e-06   9.7390134594944776e-06   1.0588895129934293e-05   1.0796665989611230e-05   1.2132367130821529e-05   1.2289177224940458e-05   1.4128412916164715e-05   1.4159245874921373e-05   1.6500364008220770e-05   1.6335056217352766e-05   1.9157100287345404e-05   1.8733038115904962e-05   2.1996551420127493e-05   2.1261078546210069e-05   2.4909618798065931e-05   2.3822061148027637e-05   2.7784367202100903e-05   2.6317597713185836e-05   3.0510325031948436e-05   2.8651808135320165e-05   3.2982727738584872e-05   3.0735003468912301e-05   3.5106541218106375e-05   3.2487130449340168e-05   3.6800110276107541e-05   3.3840845009372290e-05   3.7998291647084756e-05   3.4744096765748637e-05   3.8654951558925337e-05   3.5162125825700526e-05   3.5146054310894525e-05   3.0985246683221141e-05   3.4847355178466127e-05   3.0522182289636094e-05   3.4129899130665468e-05   2.9728913879360164e-05   3.3021306507068351e-05   2.8635947094312819e-05   3.1564255540354242e-05   2.7285337448734646e-05   2.9814834566777810e-05   2.5729066166255509e-05   2.7840380862456933e-05   2.4027035985948493e-05   2.5716888091694940e-05   2.2244763522293292e-05   2.3526081765444535e-05   2.0450856697304065e-05   2.1352275087426811e-05   1.8714374136207039e-05   1.9279126019862497e-05   1.7102167977180010e-05   1.7386420168895396e-05   1.5676312174009933e-05   1.5747003071529732e-05   1.4491715069304713e-05   1.4423979707987971e-05   1.3594007920922177e-05   1.3468288785076905e-05   1.3017790450214302e-05   1.2916744929523887e-05   1.2785300754949423e-05   1.2790623946918192e-05   1.2905560618812423e-05   1.3094845431871392e-05   1.3374028979003936e-05   1.3817784059570639e-05   1.4172776785210376e-05   1.4931716729916714e-05   1.5271176447045800e-05   1.6393888301165268e-05   1.6627079292734371e-05   1.8148154879266885e-05   1.8188435709017696e-05   2.0127141435400513e-05   1.9895295621506558e-05   2.2254830760058840e-05   2.1682112359283661e-05   2.4449484186515591e-05   2.3480261288667188e-05   2.6626781765167666e-05   2.5220676345950748e-05   2.8703061130756205e-05   2.6836503064768799e-05   3.0598530497766573e-05   2.8265666057513100e-05   3.2240332192230208e-05   2.9453252208173197e-05   3.3565338869326684e-05   3.0353617970181726e-05   3.4522574969722074e-05   3.0932139914936619e-05   3.5075170927977154e-05   3.1166541652619214e-05   3.1148574369052151e-05   2.6649352820528200e-05   3.1045512270859404e-05   2.6309407481939570e-05   3.0671462548734698e-05   2.5797110425499044e-05   3.0040844327512972e-05   2.5132161372146842e-05   2.9177967782226227e-05   2.4340161779826878e-05   2.8116091181539763e-05   2.3451622718658783e-05   2.6896135918979645e-05   2.2500785287561735e-05   2.5565108270790415e-05   2.1524298698253661e-05   2.4174288245893845e-05   2.0559806712530575e-05   2.2777255022853457e-05   1.9644496692010563e-05   2.1427824800119320e-05   1.8813666972572523e-05   2.0177980253721856e-05   1.8099367569804445e-05   1.9075871108305186e-05   1.7529166395350058e-05   1.8163962583976451e-05   1.7125088331486165e-05   1.7477402791336318e-05   1.6902767860613284e-05   1.7042671728648993e-05   1.6870847733786875e-05   1.6876563711061858e-05   1.7030646703382934e-05   1.6985542247186328e-05   1.7376109002581461e-05   1.7365492065168269e-05   1.7894037425521499e-05   1.8001877728340123e-05   1.8564600962539166e-05   1.8870302655966695e-05   1.9362097393479148e-05   1.9937446977864934e-05   2.0255941443864566e-05   2.1162348094053051e-05   2.1211840440194317e-05   2.2497974641383084e-05   2.2193112194673622e-05   2.3893033294237965e-05   2.3162094383250360e-05   2.5293938878599835e-05   2.4081591164199199e-05   2.6646872001573236e-05   2.4916301354376223e-05   2.7899845033819759e-05   2.5634173195734110e-05   2.9004696966631735e-05   2.6207633587205916e-05   2.9918940436178409e-05   2.6614644531097296e-05   3.0607390020448297e-05   2.6839546269010005e-05   3.1043509632455649e-05   2.6873654873593469e-05   2.6854546016777264e-05   2.2177681304936775e-05   2.6958843382205621e-05   2.1965293716485009e-05   2.6949400372731919e-05   2.1745117512661897e-05   2.6826622124731187e-05   2.1525620366753026e-05   2.6595301967467858e-05   2.1315279681720663e-05   2.6264428472222585e-05   2.1122248786675989e-05   2.5846832808457375e-05   2.0954036609758979e-05   2.5358689655615853e-05   2.0817213050506884e-05   2.4818890641154122e-05   2.0717151313112029e-05   2.4248314263565958e-05   2.0657817055458395e-05   2.3669020278477383e-05   2.0641612411901214e-05   2.3103399439113634e-05   2.0669280834821128e-05   2.2573311195385378e-05   2.0739876355858970e-05   2.2099242412369579e-05   2.0850798384629853e-05   2.1699519355389386e-05   2.0997890637212820e-05   2.1389603137493977e-05   2.1175600316375921e-05   2.1181495614708503e-05   2.1377191345290617e-05   2.1083278467968371e-05   2.1595003375500697e-05   2.1098803090962577e-05   2.1820746527838392e-05   2.1227543106745430e-05   2.2045820449290825e-05   2.1464615085504221e-05   2.2261645332224218e-05   2.1800966571501753e-05   2.2459992080682300e-05   2.2223724097354302e-05   2.2633298839425226e-05   2.2716687715701780e-05   2.2774961623806628e-05   2.3260952948296077e-05   2.2879587782829369e-05   2.3835636157179917e-05   2.2943202456342469e-05   2.4418675370736931e-05   2.2963399997279036e-05   2.4987675703907394e-05   2.2939434454648640e-05   2.5520766814699997e-05   2.2872245575297494e-05   2.5997439419256873e-05   2.2764419294313643e-05   2.6399328786413327e-05   2.2620084243025669e-05   2.6710915329708645e-05   2.2444748291195436e-05   2.2425277497324757e-05   1.7738654215217459e-05   2.2740851998169890e-05   1.7653461401642813e-05   2.3103489199727228e-05   1.7725548173281436e-05   2.3499294065826499e-05   1.7952146664330664e-05   2.3913129032287709e-05   1.8324585490775406e-05   2.4329187500861304e-05   1.8828615589697744e-05   2.4731594269238369e-05   1.9444951259257975e-05   2.5105009702647429e-05   2.0150005571238825e-05   2.5435214305595994e-05   2.0916791867596252e-05   2.5709651133188770e-05   2.1715956670354983e-05   2.5917905121251179e-05   2.2516904278045763e-05   2.6052100845672037e-05   2.3288969790481184e-05   2.6107203355168810e-05   2.4002595434553217e-05   2.6081210442242899e-05   2.4630464929277436e-05   2.5975228884065985e-05   2.5148552233898357e-05   2.5793431639503689e-05   2.5537044306780544e-05   2.5542897559403175e-05   2.5781102338968357e-05   2.5233339679064648e-05   2.5871432128620745e-05   2.4876732440832578e-05   2.5804641592687302e-05   2.4486852076423144e-05   2.5583371588282319e-05   2.4078747713742534e-05   2.5216194923959793e-05   2.3668163433359840e-05   2.4717287345843663e-05   2.3270933383431457e-05   2.4105883043168867e-05   2.2902373096501724e-05   2.3405535495927911e-05   2.2576690297864319e-05   2.2643211966321329e-05   2.2306437747943914e-05   2.1848256329153437e-05   2.2102029050212498e-05   2.1051259999822635e-05   2.1971335945623788e-05   2.0282884259259182e-05   2.1919382501714538e-05   1.9572679158199258e-05   2.1948147917177819e-05   1.8947944335261985e-05   2.2056485551210347e-05   1.8432675493135117e-05   2.2240161408186103e-05   1.8046636999826194e-05   1.8027583903359151e-05   1.3499792463614277e-05   1.8550372509056435e-05   1.3536629856939822e-05   1.9278507274580195e-05   1.3890076868750032e-05   2.0184046407587668e-05   1.4546550851578233e-05   2.1232260211906231e-05   1.5480855045724878e-05   2.2382958342816373e-05   1.6657140402100129e-05   2.3592027890719702e-05   1.8030277461740519e-05   2.4813123147612158e-05   1.9547585554262373e-05   2.5999442056191748e-05   2.1150852853474209e-05   2.7105521009434084e-05   2.2778569650000447e-05   2.8088978966496998e-05   2.4368288999357500e-05   2.8912143799236004e-05   2.5859023999428757e-05   2.9543498307003311e-05   2.7193589534452558e-05   2.9958890263158271e-05   2.8320798448413390e-05   3.0142459919899603e-05   2.9197427697404364e-05   3.0087249250997404e-05   2.9789878863188634e-05   2.9795469437994867e-05   3.0075469149299818e-05   2.9278416234653745e-05   3.0043303175296842e-05   2.8556036372264571e-05   2.9694691988722637e-05   2.7656161575002876e-05   2.9043103108960958e-05   2.6613439524594479e-05   2.8113643434080285e-05   2.5468002756532623e-05   2.6942094788563060e-05   2.4263926538688852e-05   2.5573539077078506e-05   2.3047534890801802e-05   2.4060625776954747e-05   2.1865619738838490e-05   2.2461548244396130e-05   2.0763641537998002e-05   2.0837806499352288e-05   1.9783980414843809e-05   1.9251842362175150e-05   1.8964304946909145e-05   1.7764637727058276e-05   1.8336121194464947e-05   1.6433368184154040e-05   1.7923557701327351e-05   1.5309202088386077e-05   1.7742433158022340e-05   1.4435329597662365e-05   1.7799642617104505e-05   1.3845297383100548e-05   1.3827415233754541e-05   9.6213056758622025e-06   1.4545507491509359e-05   9.7703923077495418e-06   1.5618715301839785e-05   1.0383640773598754e-05   1.7005835147870494e-05   1.1437483789198465e-05   1.8653625832071447e-05   1.2891448629913893e-05   2.0498848217380447e-05   1.4689707169913049e-05   2.2470689950545037e-05   1.6763216556514195e-05   2.4493481980888663e-05   1.9032368243116864e-05   2.6489602452199608e-05   2.1410043578136786e-05   2.8382456335850716e-05   2.3804958525894481e-05   3.0099416257832420e-05   2.6125168978834361e-05   3.1574611459583568e-05   2.8281601940376286e-05   3.2751457664046897e-05   3.0191476854227569e-05   3.3584830570024211e-05   3.1781485568828485e-05   3.4042799387579098e-05   3.2990608693007572e-05   3.4107853729049183e-05   3.3772460064619608e-05   3.3777576634841817e-05   3.4097069181082869e-05   3.3064737792596467e-05   3.3952033032541691e-05   3.1996803284788137e-05   3.3342993005072247e-05   3.0614880617356368e-05   3.2293418451858861e-05   2.8972139479049343e-05   3.0843705168171742e-05   2.7131768824233035e-05   2.9049623327700225e-05   2.5164548687056990e-05   2.6980174432061578e-05   2.3146129937807901e-05   2.4714939531913363e-05   2.1154126414601102e-05   2.2341020524909492e-05   1.9265131074606094e-05   1.9949691972132021e-05   1.7551770732593417e-05   1.7632892000245999e-05   1.6079912479810539e-05   1.5479687044307411e-05   1.4906129062003048e-05   1.3572846198344558e-05   1.4075520568054380e-05   1.1985656738733763e-05   1.3619976123852605e-05   1.0779103131376045e-05   1.3556942425565970e-05   9.9995178888809569e-06   9.9835074567579117e-06   6.2499546981434189e-06   1.0877582466348253e-05   6.4972562957433044e-06   1.2262346275772386e-05   7.3388914841944773e-06   1.4084621652137664e-05   8.7425171499328543e-06   1.6274438802124048e-05   1.0654213683824051e-05   1.8747719282987594e-05   1.3000553141876294e-05   2.1409502671817214e-05   1.5691417471219618e-05   2.4157591997484772e-05   1.8623458486752657e-05   2.6886477834589591e-05   2.1684066634984705e-05   2.9491390242213685e-05   2.4755696035561533e-05   3.1872322810740320e-05   2.7720379597809798e-05   3.3937874145794389e-05   3.0464260698902087e-05   3.5608759128090055e-05   3.2881967265672329e-05   3.6820854972192331e-05   3.4880660149929328e-05   3.7527664978455542e-05   3.6383600195536819e-05   3.7702105243911743e-05   3.7333096883922424e-05   3.7337545610044109e-05   3.7692725202461617e-05   3.6448064778456641e-05   3.7448725494318746e-05   3.5067909718453788e-05   3.6610532438291119e-05   3.3250180063160734e-05   3.5210412766769579e-05   3.1064787968318808e-05   3.3302225573307606e-05   2.8595771746066060e-05   3.0959352772722539e-05   2.5938066415342367e-05   2.8271879160800916e-05   2.3193855177155293e-05   2.5343130352599521e-05   2.0468641925366793e-05   2.2285701550369238e-05   1.7867195623684071e-05   1.9217129656570764e-05   1.5489522306072555e-05   1.6255374952863631e-05   1.3427019402871340e-05   1.3514285886092336e-05   1.1758960100980206e-05   1.1099221156502213e-05   1.0549442784783101e-05   9.1029972676762849e-06   9.8449227635338333e-06   7.6023172061706949e-06   9.6724211587418906e-06   6.6548174573708746e-06   6.6413023734176367e-06   3.5134243440260288e-06   7.6853523787899200e-06   3.8411803308053134e-06   9.3363179786763809e-06   4.8711121291122404e-06   1.1530791064816550e-05   6.5636428868576218e-06   1.4184491688539512e-05   8.8537461290432626e-06   1.7195503352617275e-05   1.1653442253185342e-05   2.0448186445763245e-05   1.4855177302700736e-05   2.3817619432897115e-05   1.8335954159472641e-05   2.7174397130081191e-05   2.1962057398587684e-05   3.0389601667283937e-05   2.5594190244467155e-05   3.3339755100913587e-05   2.9092826233198780e-05   3.5911563337416404e-05   3.2323569931731063e-05   3.8006269042759989e-05   3.5162320710401412e-05   3.9543446232596037e-05   3.7500041126342807e-05   4.04640906