<?xml version="1.0"?>
<VTKFile type="UnstructuredGrid"  version="0.1"  >
<UnstructuredGrid>
<Piece  NumberOfPoints="1089" NumberOfCells="2048">
<Points>
<DataArray  type="Float64"  NumberOfComponents="3"  format="ascii">0 0 0  0.03125 0 0  0.0625 0 0  0.09375 0 0  0.125 0 0  0.15625 0 0  0.1875 0 0  0.21875 0 0  0.25 0 0  0.28125 0 0  0.3125 0 0  0.34375 0 0  0.375 0 0  0.40625 0 0  0.4375 0 0  0.46875 0 0  0.5 0 0  0.53125 0 0  0.5625 0 0  0.59375 0 0  0.625 0 0  0.65625 0 0  0.6875 0 0  0.71875 0 0  0.75 0 0  0.78125 0 0  0.8125 0 0  0.84375 0 0  0.875 0 0  0.90625 0 0  0.9375 0 0  0.96875 0 0  1 0 0  0 0.03125 0  0.03125 0.03125 0  0.0625 0.03125 0  0.09375 0.03125 0  0.125 0.03125 0  0.15625 0.03125 0  0.1875 0.03125 0  0.21875 0.03125 0  0.25 0.03125 0  0.28125 0.03125 0  0.3125 0.03125 0  0.34375 0.03125 0  0.375 0.03125 0  0.40625 0.03125 0  0.4375 0.03125 0  0.46875 0.03125 0  0.5 0.03125 0  0.53125 0.03125 0  0.5625 0.03125 0  0.59375 0.03125 0  0.625 0.03125 0  0.65625 0.03125 0  0.6875 0.03125 0  0.71875 0.03125 0  0.75 0.03125 0  0.78125 0.03125 0  0.8125 0.03125 0  0.84375 0.03125 0  0.875 0.03125 0  0.90625 0.03125 0  0.9375 0.03125 0  0.96875 0.03125 0  1 0.03125 0  0 0.0625 0  0.03125 0.0625 0  0.0625 0.0625 0  0.09375 0.0625 0  0.125 0.0625 0  0.15625 0.0625 0  0.1875 0.0625 0  0.21875 0.0625 0  0.25 0.0625 0  0.28125 0.0625 0  0.3125 0.0625 0  0.34375 0.0625 0  0.375 0.0625 0  0.40625 0.0625 0  0.4375 0.0625 0  0.46875 0.0625 0  0.5 0.0625 0  0.53125 0.0625 0  0.5625 0.0625 0  0.59375 0.0625 0  0.625 0.0625 0  0.65625 0.0625 0  0.6875 0.0625 0  0.71875 0.0625 0  0.75 0.0625 0  0.78125 0.0625 0  0.8125 0.0625 0  0.84375 0.0625 0  0.875 0.0625 0  0.90625 0.0625 0  0.9375 0.0625 0  0.96875 0.0625 0  1 0.0625 0  0 0.09375 0  0.03125 0.09375 0  0.0625 0.09375 0  0.09375 0.09375 0  0.125 0.09375 0  0.15625 0.09375 0  0.1875 0.09375 0  0.21875 0.09375 0  0.25 0.09375 0  0.28125 0.09375 0  0.3125 0.09375 0  0.34375 0.09375 0  0.375 0.09375 0  0.40625 0.09375 0  0.4375 0.09375 0  0.46875 0.09375 0  0.5 0.09375 0  0.53125 0.09375 0  0.5625 0.09375 0  0.59375 0.09375 0  0.625 0.09375 0  0.65625 0.09375 0  0.6875 0.09375 0  0.71875 0.09375 0  0.75 0.09375 0  0.78125 0.09375 0  0.8125 0.09375 0  0.84375 0.09375 0  0.875 0.09375 0  0.90625 0.09375 0  0.9375 0.09375 0  0.96875 0.09375 0  1 0.09375 0  0 0.125 0  0.03125 0.125 0  0.0625 0.125 0  0.09375 0.125 0  0.125 0.125 0  0.15625 0.125 0  0.1875 0.125 0  0.21875 0.125 0  0.25 0.125 0  0.28125 0.125 0  0.3125 0.125 0  0.34375 0.125 0  0.375 0.125 0  0.40625 0.125 0  0.4375 0.125 0  0.46875 0.125 0  0.5 0.125 0  0.53125 0.125 0  0.5625 0.125 0  0.59375 0.125 0  0.625 0.125 0  0.65625 0.125 0  0.6875 0.125 0  0.71875 0.125 0  0.75 0.125 0  0.78125 0.125 0  0.8125 0.125 0  0.84375 0.125 0  0.875 0.125 0  0.90625 0.125 0  0.9375 0.125 0  0.96875 0.125 0  1 0.125 0  0 0.15625 0  0.03125 0.15625 0  0.0625 0.15625 0  0.09375 0.15625 0  0.125 0.15625 0  0.15625 0.15625 0  0.1875 0.15625 0  0.21875 0.15625 0  0.25 0.15625 0  0.28125 0.15625 0  0.3125 0.15625 0  0.34375 0.15625 0  0.375 0.15625 0  0.40625 0.15625 0  0.4375 0.15625 0  0.46875 0.15625 0  0.5 0.15625 0  0.53125 0.15625 0  0.5625 0.15625 0  0.59375 0.15625 0  0.625 0.15625 0  0.65625 0.15625 0  0.6875 0.15625 0  0.71875 0.15625 0  0.75 0.15625 0  0.78125 0.15625 0  0.8125 0.15625 0  0.84375 0.15625 0  0.875 0.15625 0  0.90625 0.15625 0  0.9375 0.15625 0  0.96875 0.15625 0  1 0.15625 0  0 0.1875 0  0.03125 0.1875 0  0.0625 0.1875 0  0.09375 0.1875 0  0.125 0.1875 0  0.15625 0.1875 0  0.1875 0.1875 0  0.21875 0.1875 0  0.25 0.1875 0  0.28125 0.1875 0  0.3125 0.1875 0  0.34375 0.1875 0  0.375 0.1875 0  0.40625 0.1875 0  0.4375 0.1875 0  0.46875 0.1875 0  0.5 0.1875 0  0.53125 0.1875 0  0.5625 0.1875 0  0.59375 0.1875 0  0.625 0.1875 0  0.65625 0.1875 0  0.6875 0.1875 0  0.71875 0.1875 0  0.75 0.1875 0  0.78125 0.1875 0  0.8125 0.1875 0  0.84375 0.1875 0  0.875 0.1875 0  0.90625 0.1875 0  0.9375 0.1875 0  0.96875 0.1875 0  1 0.1875 0  0 0.21875 0  0.03125 0.21875 0  0.0625 0.21875 0  0.09375 0.21875 0  0.125 0.21875 0  0.15625 0.21875 0  0.1875 0.21875 0  0.21875 0.21875 0  0.25 0.21875 0  0.28125 0.21875 0  0.3125 0.21875 0  0.34375 0.21875 0  0.375 0.21875 0  0.40625 0.21875 0  0.4375 0.21875 0  0.46875 0.21875 0  0.5 0.21875 0  0.53125 0.21875 0  0.5625 0.21875 0  0.59375 0.21875 0  0.625 0.21875 0  0.65625 0.21875 0  0.6875 0.21875 0  0.71875 0.21875 0  0.75 0.21875 0  0.78125 0.21875 0  0.8125 0.21875 0  0.84375 0.21875 0  0.875 0.21875 0  0.90625 0.21875 0  0.9375 0.21875 0  0.96875 0.21875 0  1 0.21875 0  0 0.25 0  0.03125 0.25 0  0.0625 0.25 0  0.09375 0.25 0  0.125 0.25 0  0.15625 0.25 0  0.1875 0.25 0  0.21875 0.25 0  0.25 0.25 0  0.28125 0.25 0  0.3125 0.25 0  0.34375 0.25 0  0.375 0.25 0  0.40625 0.25 0  0.4375 0.25 0  0.46875 0.25 0  0.5 0.25 0  0.53125 0.25 0  0.5625 0.25 0  0.59375 0.25 0  0.625 0.25 0  0.65625 0.25 0  0.6875 0.25 0  0.71875 0.25 0  0.75 0.25 0  0.78125 0.25 0  0.8125 0.25 0  0.84375 0.25 0  0.875 0.25 0  0.90625 0.25 0  0.9375 0.25 0  0.96875 0.25 0  1 0.25 0  0 0.28125 0  0.03125 0.28125 0  0.0625 0.28125 0  0.09375 0.28125 0  0.125 0.28125 0  0.15625 0.28125 0  0.1875 0.28125 0  0.21875 0.28125 0  0.25 0.28125 0  0.28125 0.28125 0  0.3125 0.28125 0  0.34375 0.28125 0  0.375 0.28125 0  0.40625 0.28125 0  0.4375 0.28125 0  0.46875 0.28125 0  0.5 0.28125 0  0.53125 0.28125 0  0.5625 0.28125 0  0.59375 0.28125 0  0.625 0.28125 0  0.65625 0.28125 0  0.6875 0.28125 0  0.71875 0.28125 0  0.75 0.28125 0  0.78125 0.28125 0  0.8125 0.28125 0  0.84375 0.28125 0  0.875 0.28125 0  0.90625 0.28125 0  0.9375 0.28125 0  0.96875 0.28125 0  1 0.28125 0  0 0.3125 0  0.03125 0.3125 0  0.0625 0.3125 0  0.09375 0.3125 0  0.125 0.3125 0  0.15625 0.3125 0  0.1875 0.3125 0  0.21875 0.3125 0  0.25 0.3125 0  0.28125 0.3125 0  0.3125 0.3125 0  0.34375 0.3125 0  0.375 0.3125 0  0.40625 0.3125 0  0.4375 0.3125 0  0.46875 0.3125 0  0.5 0.3125 0  0.53125 0.3125 0  0.5625 0.3125 0  0.59375 0.3125 0  0.625 0.3125 0  0.65625 0.3125 0  0.6875 0.3125 0  0.71875 0.3125 0  0.75 0.3125 0  0.78125 0.3125 0  0.8125 0.3125 0  0.84375 0.3125 0  0.875 0.3125 0  0.90625 0.3125 0  0.9375 0.3125 0  0.96875 0.3125 0  1 0.3125 0  0 0.34375 0  0.03125 0.34375 0  0.0625 0.34375 0  0.09375 0.34375 0  0.125 0.34375 0  0.15625 0.34375 0  0.1875 0.34375 0  0.21875 0.34375 0  0.25 0.34375 0  0.28125 0.34375 0  0.3125 0.34375 0  0.34375 0.34375 0  0.375 0.34375 0  0.40625 0.34375 0  0.4375 0.34375 0  0.46875 0.34375 0  0.5 0.34375 0  0.53125 0.34375 0  0.5625 0.34375 0  0.59375 0.34375 0  0.625 0.34375 0  0.65625 0.34375 0  0.6875 0.34375 0  0.71875 0.34375 0  0.75 0.34375 0  0.78125 0.34375 0  0.8125 0.34375 0  0.84375 0.34375 0  0.875 0.34375 0  0.90625 0.34375 0  0.9375 0.34375 0  0.96875 0.34375 0  1 0.34375 0  0 0.375 0  0.03125 0.375 0  0.0625 0.375 0  0.09375 0.375 0  0.125 0.375 0  0.15625 0.375 0  0.1875 0.375 0  0.21875 0.375 0  0.25 0.375 0  0.28125 0.375 0  0.3125 0.375 0  0.34375 0.375 0  0.375 0.375 0  0.40625 0.375 0  0.4375 0.375 0  0.46875 0.375 0  0.5 0.375 0  0.53125 0.375 0  0.5625 0.375 0  0.59375 0.375 0  0.625 0.375 0  0.65625 0.375 0  0.6875 0.375 0  0.71875 0.375 0  0.75 0.375 0  0.78125 0.375 0  0.8125 0.375 0  0.84375 0.375 0  0.875 0.375 0  0.90625 0.375 0  0.9375 0.375 0  0.96875 0.375 0  1 0.375 0  0 0.40625 0  0.03125 0.40625 0  0.0625 0.40625 0  0.09375 0.40625 0  0.125 0.40625 0  0.15625 0.40625 0  0.1875 0.40625 0  0.21875 0.40625 0  0.25 0.40625 0  0.28125 0.40625 0  0.3125 0.40625 0  0.34375 0.40625 0  0.375 0.40625 0  0.40625 0.40625 0  0.4375 0.40625 0  0.46875 0.40625 0  0.5 0.40625 0  0.53125 0.40625 0  0.5625 0.40625 0  0.59375 0.40625 0  0.625 0.40625 0  0.65625 0.40625 0  0.6875 0.40625 0  0.71875 0.40625 0  0.75 0.40625 0  0.78125 0.40625 0  0.8125 0.40625 0  0.84375 0.40625 0  0.875 0.40625 0  0.90625 0.40625 0  0.9375 0.40625 0  0.96875 0.40625 0  1 0.40625 0  0 0.4375 0  0.03125 0.4375 0  0.0625 0.4375 0  0.09375 0.4375 0  0.125 0.4375 0  0.15625 0.4375 0  0.1875 0.4375 0  0.21875 0.4375 0  0.25 0.4375 0  0.28125 0.4375 0  0.3125 0.4375 0  0.34375 0.4375 0  0.375 0.4375 0  0.40625 0.4375 0  0.4375 0.4375 0  0.46875 0.4375 0  0.5 0.4375 0  0.53125 0.4375 0  0.5625 0.4375 0  0.59375 0.4375 0  0.625 0.4375 0  0.65625 0.4375 0  0.6875 0.4375 0  0.71875 0.4375 0  0.75 0.4375 0  0.78125 0.4375 0  0.8125 0.4375 0  0.84375 0.4375 0  0.875 0.4375 0  0.90625 0.4375 0  0.9375 0.4375 0  0.96875 0.4375 0  1 0.4375 0  0 0.46875 0  0.03125 0.46875 0  0.0625 0.46875 0  0.09375 0.46875 0  0.125 0.46875 0  0.15625 0.46875 0  0.1875 0.46875 0  0.21875 0.46875 0  0.25 0.46875 0  0.28125 0.46875 0  0.3125 0.46875 0  0.34375 0.46875 0  0.375 0.46875 0  0.40625 0.46875 0  0.4375 0.46875 0  0.46875 0.46875 0  0.5 0.46875 0  0.53125 0.46875 0  0.5625 0.46875 0  0.59375 0.46875 0  0.625 0.46875 0  0.65625 0.46875 0  0.6875 0.46875 0  0.71875 0.46875 0  0.75 0.46875 0  0.78125 0.46875 0  0.8125 0.46875 0  0.84375 0.46875 0  0.875 0.46875 0  0.90625 0.46875 0  0.9375 0.46875 0  0.96875 0.46875 0  1 0.46875 0  0 0.5 0  0.03125 0.5 0  0.0625 0.5 0  0.09375 0.5 0  0.125 0.5 0  0.15625 0.5 0  0.1875 0.5 0  0.21875 0.5 0  0.25 0.5 0  0.28125 0.5 0  0.3125 0.5 0  0.34375 0.5 0  0.375 0.5 0  0.40625 0.5 0  0.4375 0.5 0  0.46875 0.5 0  0.5 0.5 0  0.53125 0.5 0  0.5625 0.5 0  0.59375 0.5 0  0.625 0.5 0  0.65625 0.5 0  0.6875 0.5 0  0.71875 0.5 0  0.75 0.5 0  0.78125 0.5 0  0.8125 0.5 0  0.84375 0.5 0  0.875 0.5 0  0.90625 0.5 0  0.9375 0.5 0  0.96875 0.5 0  1 0.5 0  0 0.53125 0  0.03125 0.53125 0  0.0625 0.53125 0  0.09375 0.53125 0  0.125 0.53125 0  0.15625 0.53125 0  0.1875 0.53125 0  0.21875 0.53125 0  0.25 0.53125 0  0.28125 0.53125 0  0.3125 0.53125 0  0.34375 0.53125 0  0.375 0.53125 0  0.40625 0.53125 0  0.4375 0.53125 0  0.46875 0.53125 0  0.5 0.53125 0  0.53125 0.53125 0  0.5625 0.53125 0  0.59375 0.53125 0  0.625 0.53125 0  0.65625 0.53125 0  0.6875 0.53125 0  0.71875 0.53125 0  0.75 0.53125 0  0.78125 0.531
[...]
<CellData  Scalars="f_40569"> 
<DataArray  type="Float64"  Name="f_40569"  format="ascii">4.6151670932213134e-05   4.5724216960911393e-05   4.5270011435977923e-05   4.4844332613978982e-05   4.3539631067877714e-05   4.3124940646302328e-05   4.1027057796140444e-05   4.0631865963250107e-05   3.7828867005561953e-05   3.7460695009209320e-05   3.4067973656470096e-05   3.3733106482003659e-05   2.9888911348136668e-05   2.9592194778582563e-05   2.5452279893583855e-05   2.5196967206433353e-05   2.0928574950736730e-05   2.0716228987305337e-05   1.6491636969699888e-05   1.6322091943437805e-05   1.2311971314022645e-05   1.2183356627564182e-05   8.5501963379730465e-06   8.4590222936341949e-06   5.3508712634362901e-06   5.2921740926680578e-06   2.8369410883049364e-06   2.8044823373908606e-06   1.1050120339108941e-06   1.0915251407927392e-06   2.2163911300085532e-07   2.1911408815021088e-07   2.2076849820223223e-07   2.2076405761478151e-07   1.1024329882605753e-06   1.0964043378695341e-06   2.8327507108052034e-06   2.8123804894570452e-06   5.3452271165392743e-06   5.3027467906443885e-06   8.5433102352516484e-06   8.4717995044310507e-06   1.2304101003863443e-05   1.2197753506244793e-05   1.6483076092056780e-05   1.6337420854990441e-05   2.0919641748351157e-05   2.0731711363888725e-05   2.5443305264941214e-05   2.5211743616518764e-05   2.9880226941690163e-05   2.9605331404059179e-05   3.4059900832111997e-05   3.3743596166618180e-05   3.7821707640557170e-05   3.7467451354706105e-05   4.1021088100222571e-05   4.0633710177846681e-05   4.3535099796531413e-05   4.3120584893271505e-05   4.5267144083082358e-05   4.4832377929703788e-05   4.6150681147810068e-05   4.5703239993188801e-05   4.5733496161698875e-05   4.4430754145741454e-05   4.4880231516188237e-05   4.3579596238120417e-05   4.3202885786493156e-05   4.1930477599834654e-05   4.0765709516730084e-05   3.9546247644645659e-05   3.7662163231549730e-05   3.6518091721573159e-05   3.4011336840325194e-05   3.2962015295452304e-05   2.9953377174693885e-05   2.9014377502866684e-05   2.5644101550975098e-05   2.4826641825539441e-05   2.1249007413051211e-05   2.0559546395888042e-05   1.6936909487019345e-05   1.6376918627872840e-05   1.2873449496858341e-05   1.2439372204738419e-05   9.2147280878190732e-06   8.8981287258365275e-06   6.1013037584029622e-06   5.8892013801480078e-06   3.6527894192697231e-06   3.5281640293787459e-06   1.9632541903233717e-06   1.9057065563949154e-06   1.0976070826107179e-06   1.0841471113989934e-06   1.0891014695087551e-06   1.0950351173567998e-06   1.9380561763942811e-06   1.9379369828436489e-06   3.6118422613923230e-06   3.5804510202919109e-06   6.0461359166754239e-06   5.9594508239463809e-06   9.1473892585812845e-06   8.9835091381465108e-06   1.2796423965597629e-05   1.2536408856387241e-05   1.6853009566048707e-05   1.6481605978875965e-05   2.1161250333714457e-05   2.0667472729060887e-05   2.5555573680758922e-05   2.4933119000061060e-05   2.9867089852932675e-05   2.9114568037198075e-05   3.3930078557863342e-05   3.3051048653226134e-05   3.7588353543265769e-05   3.6591161934431118e-05   4.0701261589641572e-05   3.9598685758132391e-05   4.3149088833907315e-05   4.1957796088503256e-05   4.4837679197786247e-05   4.3577511750393079e-05   4.5702144838970276e-05   4.4395211944616430e-05   4.4456458994319368e-05   4.2319090698940721e-05   4.3672361763859921e-05   4.1520745884352270e-05   4.2119905816107432e-05   3.9996962020468361e-05   3.9858228433350378e-05   3.7805514334207665e-05   3.6973800787082938e-05   3.5029961983194302e-05   3.3577096923644973e-05   3.1776427028741315e-05   2.9798342230959854e-05   2.8169501969250062e-05   2.5782501157151570e-05   2.4347446478859312e-05   2.1683697958008780e-05   2.0456859606246937e-05   1.7659285798492611e-05   1.6647032993701668e-05   1.3863792621095417e-05   1.3064202457323161e-05   1.0442976617408369e-05   9.8459188697038088e-06   7.5282197440272548e-06   7.1157545255332960e-06   5.2314746360122690e-06   4.9785481900492266e-06   3.6409589588201265e-06   3.5163712948150009e-06   2.8177624992078678e-06   2.7853700271343876e-06   2.7934972168578424e-06   2.8136044069865987e-06   3.5690804002606044e-06   3.5999671411173721e-06   5.1146975273306498e-06   5.1142235527916861e-06   7.3709460932763287e-06   7.2981707977709445e-06   1.0251116276150288e-05   1.0067871545229673e-05   1.3644520608255433e-05   1.3316875978555776e-05   1.7420744489839663e-05   1.6920307942775724e-05   2.1434653973683514e-05   2.0739657795591582e-05   2.5531968133991401e-05   2.4628097291887778e-05   2.9555181647082861e-05   2.8436111708295849e-05   3.3349609829131111e-05   3.2017232204464561e-05   3.6769323912965101e-05   3.5233647674085262e-05   3.9682749246287141e-05   3.7961480390931161e-05   4.1977713978980608e-05   4.0095523750565915e-05   4.3565762628652564e-05   4.1553262992592256e-05   4.4385591291040127e-05   4.2278026495205671e-05   4.2368740983124927e-05   3.9469668800772004e-05   4.1692028061424461e-05   3.8746207553085041e-05   4.0331582135045020e-05   3.7398061292987053e-05   3.8338864254167355e-05   3.5476019417555180e-05   3.5789765665863386e-05   3.3053087996182820e-05   3.2781680998694186e-05   3.0221675366361178e-05   2.9429750566587640e-05   2.7090022972644813e-05   2.5862419646984287e-05   2.3778025306945560e-05   2.2216487110157866e-05   2.0412602681669131e-05   1.8631834551192721e-05   1.7122806018696980e-05   1.5246038855635058e-05   1.4034842278366365e-05   1.2189075282868140e-05   1.1267211737802131e-05   9.5783144826953091e-06   8.9261437852099438e-06   7.5140054693345363e-06   7.1015063093504951e-06   6.0754178646588111e-06   5.8633455215957866e-06   5.3177913819879158e-06   5.2591888180024618e-06   5.2702095092703115e-06   5.3122139793337959e-06   5.9344788466147734e-06   6.0203547301811726e-06   7.2850569152167248e-06   7.3563767039949904e-06   9.2700309634972074e-06   9.2689205658257456e-06   1.1813109897946988e-05   1.1684471858637394e-05   1.4816552512631175e-05   1.4510181489299355e-05   1.8164919180665543e-05   1.7637428026649047e-05   2.1729502490768018e-05   2.0945984407048153e-05   2.5373266188228634e-05   2.4308628338360114e-05   2.8956102234433723e-05   2.7596018573783260e-05   3.2340203622957178e-05   3.0681648985342612e-05   3.5395346337267089e-05   3.3446689459200382e-05   3.8003877858567423e-05   3.5784527259369887e-05   4.0065222151318029e-05   3.7604834494447435e-05   4.1499731949599852e-05   3.8837005729967561e-05   4.2251744566410560e-05   3.9432831624663201e-05   3.9549873322724132e-05   3.5991420896301754e-05   3.9014661837782390e-05   3.5362047810406795e-05   3.7906026997884938e-05   3.4233135540916038e-05   3.6265476891303288e-05   3.2646840534563804e-05   3.4155143182177758e-05   3.0663092882493527e-05   3.1655379975462459e-05   2.8357282484485374e-05   2.8861654097731647e-05   2.5817340498869802e-05   2.5880853021882252e-05   2.3140335525612101e-05   2.2827155241089132e-05   2.0428719167541499e-05   1.9817622991655446e-05   1.7786367058574096e-05   1.6967687075339455e-05   1.5314568203337960e-05   1.4386697243387192e-05   1.3108116846580497e-05   1.2173708862028483e-05   1.1251656827857284e-05   1.0413667399858665e-05   9.8164185216348176e-06   9.1741369607315004e-06   8.8574733205207949e-06   8.5026981865044377e-06   8.4116107257525827e-06   8.4251151535249887e-06   8.4959192002165097e-06   8.9443413594160142e-06   9.1071249158847779e-06   1.0040402668847822e-05   1.0221713417083837e-05   1.1671161392341159e-05   1.1796829135290594e-05   1.3773931803095741e-05   1.3771917782406545e-05   1.6267884654264020e-05   1.6071048065092799e-05   1.9057147902583319e-05   1.8605823001505290e-05   2.2034484044487461e-05   2.1278768392207882e-05   2.5085402266869373e-05   2.3987067580892535e-05   2.8092546878225886e-05   2.6626498261646419e-05   3.0940192896076077e-05   2.9095419289376692e-05   3.3518675695184022e-05   3.1298653564366998e-05   3.5728584521164395e-05   3.3151117184406731e-05   3.7484559400597298e-05   3.4581054956793714e-05   3.8718546815770999e-05   3.5532757394042121e-05   3.9382388581087998e-05   3.5968653547287264e-05   3.6107619979552029e-05   3.2017549020251681e-05   3.5742608806033172e-05   3.1497873509426751e-05   3.4935951961510804e-05   3.0623401402995954e-05   3.3717305730398317e-05   2.9426343035750897e-05   3.2132389788968243e-05   2.7951531391316851e-05   3.0241210364876720e-05   2.6254685795832865e-05   2.8115725909874587e-05   2.4400246199173058e-05   2.5837051924415441e-05   2.2458868686952650e-05   2.3492315794787209e-05   2.0504682602655930e-05   2.1171283965530267e-05   1.8612416747932402e-05   1.8962891489503023e-05   1.6854505947477383e-05   1.6951807207263899e-05   1.5298289317649226e-05   1.5215166171141425e-05   1.4003407672491551e-05   1.3819594391648535e-05   1.3019499662666523e-05   1.2818639725720559e-05   1.2384284691626131e-05   1.2250707137157653e-05   1.2122105780366271e-05   1.2137577212397480e-05   1.2242987895217669e-05   1.2483564436695918e-05   1.2742247469891287e-05   1.3275347177305012e-05   1.3600667690570410e-05   1.4482475519659498e-05   1.4785232376589743e-05   1.6058537048546799e-05   1.6250389809984881e-05   1.7942935359313846e-05   1.7939797468177701e-05   2.0063212498210737e-05   1.9788480079554609e-05   2.2337825576684198e-05   2.1725317467042566e-05   2.4679270296165203e-05   2.3675765890481836e-05   2.6997430747532684e-05   2.5564707547660433e-05   2.9203026156248989e-05   2.7319317913077320e-05   3.1211021607878725e-05   2.8871839894918461e-05   3.2943871393327178e-05   3.0162157410791175e-05   3.4334470372242445e-05   3.1140068765211133e-05   3.5328700174191315e-05   3.1767171901384182e-05   3.5887472105705892e-05   3.2018289239181723e-05   3.2173803080598466e-05   2.7700382896100340e-05   3.2001174850371263e-05   2.7301825731328638e-05   3.1535091380355609e-05   2.6707252871065277e-05   3.0791915694731836e-05   2.5938001110805825e-05   2.9798933108818303e-05   2.5022366086030995e-05   2.8593275525804861e-05   2.3994499787020100e-05   2.7220459940483256e-05   2.2893071524316572e-05   2.5732603816372211e-05   2.1759751461365681e-05   2.4186389369625486e-05   2.0637579297017188e-05   2.2640856509961808e-05   1.9569282993605890e-05   2.1155109683571107e-05   1.8595613101904302e-05   1.9786026575528738e-05   1.7753756885710852e-05   1.8586056261362612e-05   1.7075892965326602e-05   1.7601190839503749e-05   1.6587941590646374e-05   1.6869187887011248e-05   1.6308558052689332e-05   1.6418111468356786e-05   1.6248407383734048e-05   1.6265247230375228e-05   1.6409747704224112e-05   1.6416432786222011e-05   1.6786337741001793e-05   1.6865828667154818e-05   1.7363671606582647e-05   1.7596138208946467e-05   1.8119531362196401e-05   1.8579267486556833e-05   1.9024835665978571e-05   1.9777399478381415e-05   2.0044751399229939e-05   2.1144440681823413e-05   2.1140025006243001e-05   2.2627784032380626e-05   2.2268481769521884e-05   2.4170319759248960e-05   2.3386634705065919e-05   2.5712616225801605e-05   2.4451340462673381e-05   2.7195186244825477e-05   2.5421437733532241e-05   2.8560751109450882e-05   2.6259304292785665e-05   2.9756414795417209e-05   2.6932271939468298e-05   3.0735664460871703e-05   2.7413844171061941e-05   3.1460120354619412e-05   2.7684669424796847e-05   3.1900968537484049e-05   2.7733233511024170e-05   2.7899214850463780e-05   2.3205507885665560e-05   2.7933787598873478e-05   2.2934865940674507e-05   2.7833813786778601e-05   2.2634923927011714e-05   2.7601436143484032e-05   2.2315638652310360e-05   2.7244192490187640e-05   2.1987965087576449e-05   2.6774692747666145e-05   2.1663420206705680e-05   2.6210094692621550e-05   2.1353613175769925e-05   2.5571404829370662e-05   2.1069767877739222e-05   2.4882634547224291e-05   2.0822260577346933e-05   2.4169845455811201e-05   2.0620192806037008e-05   2.3460120972198383e-05   2.0471016894266965e-05   2.2780503462801670e-05   2.0380228779091403e-05   2.2156937261754881e-05   2.0351139692195971e-05   2.1613257538237722e-05   2.0384735078880025e-05   2.1170263202919829e-05   2.0479625652409121e-05   2.0844908845881121e-05   2.0632091926698080e-05   2.0649646176015312e-05   2.0836219993160443e-05   2.0591939739227397e-05   2.1084122828426246e-05   2.0673975036778774e-05   2.1366238157016574e-05   2.0892569794986238e-05   2.1671690963008767e-05   2.1239291332793093e-05   2.1988706254196737e-05   2.1700775033108020e-05   2.2305055723903343e-05   2.2259231153095229e-05   2.2608520603788209e-05   2.2893119909584617e-05   2.2887352308919864e-05   2.3577968235822825e-05   2.3130712474628940e-05   2.4287296088420220e-05   2.3329074681080642e-05   2.4993615920149463e-05   2.3474571542708566e-05   2.5669466116510902e-05   2.3561272875180758e-05   2.6288437964116331e-05   2.3585383305685134e-05   2.6826156168037253e-05   2.3545350947673360e-05   2.7261175179200893e-05   2.3441882716326718e-05   2.7575758101035943e-05   2.3277867030611960e-05   2.3447805222074850e-05   1.8705386956791762e-05   2.3696465287031782e-05   1.8564573937845980e-05   2.3974094947753013e-05   1.8562699562707370e-05   2.4268239389647881e-05   1.8698274066268794e-05   2.4566136244506347e-05   1.8964776410525329e-05   2.4855168641340260e-05   1.9350891486282777e-05   2.5123307094110107e-05   1.9840918902701299e-05   2.5359529319658321e-05   2.0415345745141549e-05   2.5554205006570116e-05   2.1051565855763795e-05   2.5699432125087475e-05   2.1724720400250864e-05   2.5789312184943630e-05   2.2408628504521196e-05   2.5820153602932911e-05   2.3076772492871795e-05   2.5790594805211035e-05   2.3703299710955001e-05   2.5701641653587170e-05   2.4264002045913430e-05   2.5556617060075695e-05   2.4737235010807571e-05   2.5361024063773425e-05   2.5104740555794851e-05   2.5122327025574827e-05   2.5352341479110715e-05   2.4849658799512964e-05   2.5470480270230302e-05   2.4553464629449024e-05   2.5454581219666543e-05   2.4245095978319390e-05   2.5305221434368132e-05   2.3936369425650887e-05   2.5028103737052068e-05   2.3639107091785233e-05   2.4633832016338061e-05   2.3364675713269265e-05   2.4137497139048538e-05   2.3123541479933922e-05   2.3558088746707832e-05   2.2924857056268043e-05   2.2917754860941378e-05   2.2776095884560254e-05   2.2240936970145931e-05   2.2682746973195938e-05   2.1553412955216370e-05   2.2648081010090286e-05   2.0881283680846109e-05   2.2672995939873709e-05   2.0249941245826447e-05   2.2755947276791026e-05   1.9683057759804353e-05   2.2892965679124356e-05   1.9201633260870203e-05   2.3077762409052221e-05   1.8823140628115007e-05   1.8990367054275679e-05   1.4372721334464916e-05   1.9451805708909171e-05   1.4358695229598311e-05   2.0104047516489718e-05   1.4646897631021027e-05   2.0920226586770766e-05   1.5224767638685461e-05   2.1867509538712654e-05   1.6068846024286403e-05   2.2908318288495039e-05   1.7145666969137552e-05   2.4001730089094198e-05   1.8413021175895057e-05   2.5105006939363415e-05   1.9821549866104342e-05   2.6175198606616653e-05   2.1316613005575402e-05   2.7170758957376315e-05   2.2840362438882663e-05   2.8053113771648146e-05   2.4333941429197706e-05   2.8788119512144358e-05   2.5739726449208377e-05   2.9347356422806141e-05   2.7003524989234277e-05   2.9709205582745936e-05   2.8076644596845444e-05   2.9859667828992085e-05   2.8917753199721696e-05   2.9792892417465181e-05   2.9494458749098895e-05   2.9511394502774699e-05   2.9784547011730161e-05   2.9025952533441592e-05   2.9776829495650018e-05   2.8355189006200592e-05   2.9471568498288602e-05   2.7524850219382646e-05   2.8880462528224598e-05   2.6566812238067084e-05   2.8026192242711949e-05   2.5517850785545150e-05   2.6941543908936606e-05   2.4418221802468772e-05   2.5668143587095148e-05   2.3310106621202961e-05   2.4254850125223952e-05   2.2235980815490308e-05   2.2755868078764858e-05   2.1236968616687541e-05   2.1228652327663126e-05   2.0351245243963181e-05   1.9731684063752710e-05   1.9612547584853269e-05   1.8322202682854785e-05   1.9048849499507137e-05   1.7053979798394993e-05   1.8681251840953286e-05   1.5975220113815116e-05   1.8523129493109464e-05   1.5126669469292396e-05   1.8579569231582592e-05   1.4540003736206785e-05   1.4697961237180142e-05   1.0373804677306379e-05   1.5362725713962143e-05   1.0478685130271408e-05   1.6372217722672595e-05   1.1037852359239489e-05   1.7685902880642159e-05   1.2028477144796942e-05   1.9251879012402907e-05   1.3411352337889461e-05   2.1008832802035097e-05   1.5132395153021951e-05   2.2888353309052958e-05   1.7124707547798482e-05   2.4817519101950467e-05   1.9311123297326083e-05   2.6721662458064371e-05   2.1607148413571639e-05   2.8527205639221319e-05   2.3924184426575147e-05   3.0164460524470681e-05   2.6172911907466300e-05   3.1570283749479572e-05   2.8266704677781530e-05   3.2690484781255124e-05   3.0124943514796082e-05   3.3481893741292942e-05   3.1676101775861603e-05   3.3914008850431212e-05   3.2860484008630776e-05   3.3970159557365071e-05   3.3632511903779706e-05   3.3648140078411165e-05   3.3962469337034329e-05   3.2960288482905793e-05   3.3837639046916026e-05   3.1933007810674871e-05   3.3262786889496177e-05   3.0605747177501886e-05   3.2259974692707490e-05   2.9029481581756287e-05   3.0867708529907523e-05   2.7264748369770740e-05   2.9139454749496380e-05   2.5379315308147470e-05   2.7141580350872851e-05   2.3445569295076382e-05   2.4950796353436594e-05   2.1537725381371256e-05   2.2651201817927747e-05   1.9728962562754361e-05   2.0331041422241585e-05   1.8088595499438572e-05   1.8079300392101575e-05   1.6679389835443837e-05   1.5982266743263600e-05   1.5555123222546617e-05   1.4120192007631102e-05   1.4758484783223411e-05   1.2564177909840008e-05   1.4319393080029338e-05   1.1373408102098279e-05   1.4253797742437681e-05   1.0592831862284854e-05   1.0735334087595563e-05   6.8621258631687038e-06   1.1586191300324213e-05   7.0734971494023286e-06   1.2921868012444076e-05   7.8741302458705780e-06   1.4689431246021389e-05   9.2321268613835425e-06   1.6819646703711059e-05   1.1094328873456953e-05   1.9229605191072432e-05   1.3388363746951435e-05   2.1825869884803145e-05   1.6025414528302149e-05   2.4508028755243849e-05   1.8903615259565340e-05   2.7172518315512699e-05   2.1911945689408501e-05   2.9716572940065249e-05   2.4934478125726540e-05   3.2042148280705154e-05   2.7854814557448789e-05   3.4059667798910503e-05   3.0560544118211187e-05   3.5691447971656732e-05   3.2947549735496608e-05   3.6874669968486728e-05   3.4923998350034984e-05   3.7563783006865440e-05   3.6413861117737750e-05   3.7732246460200207e-05   3.7359828009821250e-05   3.7373543250911184e-05   3.7725504482038692e-05   3.6501425113961891e-05   3.7496805476023541e-05   3.5149379875112722e-05   3.6682492870065628e-05   3.3369340809714893e-05   3.5313835417763795e-05   3.1229687277320025e-05   3.3443403929017280e-05   2.8812613041869277e-05   3.1143047658060105e-05   2.6210962938525062e-05   2.8501129287854525e-05   2.3524658903204608e-05   2.5619124329191948e-05   2.0856852058081678e-05   2.2607715093405350e-05   1.8309947946939766e-05   1.9582528716875230e-05   1.5981656747159912e-05   1.6659682278695161e-05   1.3961219184530678e-05   1.3951305354152763e-05   1.2325952014183982e-05   1.1561211133100315e-05   1.1138244622869354e-05   9.5808815214536940e-06   1.0443121142391967e-05   8.0859197471242611e-06   1.0266461597104484e-05   7.1331067761728332e-06   7.2545797174113691e-06   3.9724659209083121e-06   8.2671787964879613e-06   4.2738539364373803e-06   9.8854649853995065e-06   5.2772001911923159e-06   1.2045854984441805e-05   6.9430868919943977e-06   1.4664186698816963e-05   9.2067394994192327e-06   1.7638925588837464e-05   1.1980527002586543e-05   2.0855033957503516e-05   1.5157326645499231e-05   2.4188359181266035e-05   1.8614630385454030e-05   2.7510374714119609e-05   2.2219239361712653e-05   3.0693092817661501e-05   2.5832368445059970e-05   3.3613960573587785e-05   2.9314966114006813e-05   3.6160550916463436e-05   3.2533045939177533e-05   3.8234868057690622e-05   3.5362825080300737e-05   3.9757101381782763e-05   3.7695472358497061e-05   4.06686830