<?xml version="1.0"?>
<VTKFile type="UnstructuredGrid"  version="0.1"  >
<UnstructuredGrid>
<Piece  NumberOfPoints="81" NumberOfCells="128">
<Points>
<DataArray  type="Float64"  NumberOfComponents="3"  format="ascii">0 0 0  0.125 0 0  0.25 0 0  0.375 0 0  0.5 0 0  0.625 0 0  0.75 0 0  0.875 0 0  1 0 0  0 0.125 0  0.125 0.125 0  0.25 0.125 0  0.375 0.125 0  0.5 0.125 0  0.625 0.125 0  0.75 0.125 0  0.875 0.125 0  1 0.125 0  0 0.25 0  0.125 0.25 0  0.25 0.25 0  0.375 0.25 0  0.5 0.25 0  0.625 0.25 0  0.75 0.25 0  0.875 0.25 0  1 0.25 0  0 0.375 0  0.125 0.375 0  0.25 0.375 0  0.375 0.375 0  0.5 0.375 0  0.625 0.375 0  0.75 0.375 0  0.875 0.375 0  1 0.375 0  0 0.5 0  0.125 0.5 0  0.25 0.5 0  0.375 0.5 0  0.5 0.5 0  0.625 0.5 0  0.75 0.5 0  0.875 0.5 0  1 0.5 0  0 0.625 0  0.125 0.625 0  0.25 0.625 0  0.375 0.625 0  0.5 0.625 0  0.625 0.625 0  0.75 0.625 0  0.875 0.625 0  1 0.625 0  0 0.75 0  0.125 0.75 0  0.25 0.75 0  0.375 0.75 0  0.5 0.75 0  0.625 0.75 0  0.75 0.75 0  0.875 0.75 0  1 0.75 0  0 0.875 0  0.125 0.875 0  0.25 0.875 0  0.375 0.875 0  0.5 0.875 0  0.625 0.875 0  0.75 0.875 0  0.875 0.875 0  1 0.875 0  0 1 0  0.125 1 0  0.25 1 0  0.375 1 0  0.5 1 0  0.625 1 0  0.75 1 0  0.875 1 0  1 1 0  </DataArray>
</Points>
<Cells>
<DataArray  type="UInt32"  Name="connectivity"  format="ascii">0 1 10  0 9 10  1 2 11  1 10 11  2 3 12  2 11 12  3 4 13  3 12 13  4 5 14  4 13 14  5 6 15  5 14 15  6 7 16  6 15 16  7 8 17  7 16 17  9 10 19  9 18 19  10 11 20  10 19 20  11 12 21  11 20 21  12 13 22  12 21 22  13 14 23  13 22 23  14 15 24  14 23 24  15 16 25  15 24 25  16 17 26  16 25 26  18 19 28  18 27 28  19 20 29  19 28 29  20 21 30  20 29 30  21 22 31  21 30 31  22 23 32  22 31 32  23 24 33  23 32 33  24 25 34  24 33 34  25 26 35  25 34 35  27 28 37  27 36 37  28 29 38  28 37 38  29 30 39  29 38 39  30 31 40  30 39 40  31 32 41  31 40 41  32 33 42  32 41 42  33 34 43  33 42 43  34 35 44  34 43 44  36 37 46  36 45 46  37 38 47  37 46 47  38 39 48  38 47 48  39 40 49  39 48 49  40 41 50  40 49 50  41 42 51  41 50 51  42 43 52  42 51 52  43 44 53  43 52 53  45 46 55  45 54 55  46 47 56  46 55 56  47 48 57  47 56 57  48 49 58  48 57 58  49 50 59  49 58 59  50 51 60  50 59 60  51 52 61  51 60 61  52 53 62  52 61 62  54 55 64  54 63 64  55 56 65  55 64 65  56 57 66  56 65 66  57 58 67  57 66 67  58 59 68  58 67 68  59 60 69  59 68 69  60 61 70  60 69 70  61 62 71  61 70 71  63 64 73  63 72 73  64 65 74  64 73 74  65 66 75  65 74 75  66 67 76  66 75 76  67 68 77  67 76 77  68 69 78  68 77 78  69 70 79  69 78 79  70 71 80  70 79 80  </DataArray>
<DataArray  type="UInt32"  Name="offsets"  format="ascii">3 6 9 12 15 18 21 24 27 30 33 36 39 42 45 48 51 54 57 60 63 66 69 72 75 78 81 84 87 90 93 96 99 102 105 108 111 114 117 120 123 126 129 132 135 138 141 144 147 150 153 156 159 162 165 168 171 174 177 180 183 186 189 192 195 198 201 204 207 210 213 216 219 222 225 228 231 234 237 240 243 246 249 252 255 258 261 264 267 270 273 276 279 282 285 288 291 294 297 300 303 306 309 312 315 318 321 324 327 330 333 336 339 342 345 348 351 354 357 360 363 366 369 372 375 378 381 384 </DataArray>
<DataArray  type="UInt8"  Name="types"  format="ascii">5 5 5 5 5 5 5 5 5 5 5 5 5 5 5 5 5 5 5 5 5 5 5 5 5 5 5 5 5 5 5 5 5 5 5 5 5 5 5 5 5 5 5 5 5 5 5 5 5 5 5 5 5 5 5 5 5 5 5 5 5 5 5 5 5 5 5 5 5 5 5 5 5 5 5 5 5 5 5 5 5 5 5 5 5 5 5 5 5 5 5 5 5 5 5 5 5 5 5 5 5 5 5 5 5 5 5 5 5 5 5 5 5 5 5 5 5 5 5 5 5 5 5 5 5 5 5 5 </DataArray>
</Cells>
<CellData  Scalars="f_35187"> 
<DataArray  type="Float64"  Name="f_35187"  format="ascii">1.0764491510831636e-04   9.7919615404171330e-05   6.5688379732939319e-05   7.8779393294816391e-05   2.1864148268640214e-05   3.6356309301847551e-05   3.5789508106519401e-06   2.8639449404345458e-05   1.7879111090434496e-05   5.5206019791633467e-05   4.9483480392480665e-05   9.2554162611626538e-05   7.0677197572113998e-05   1.0977262699289218e-04   5.1320487870874054e-05   8.7597360136958851e-05   4.3921979489716659e-05   3.1254971284766716e-05   1.9474259909759202e-05   2.5473620594549262e-05   1.7708132800627808e-05   2.5507222455499122e-05   3.7354347454116729e-05   3.9439721243230564e-05   6.2149602535750857e-05   5.5097557669962629e-05   7.2804030565063165e-05   5.9750043845395538e-05   6.0294587277587654e-05   4.8139635474701209e-05   3.3791051281980726e-05   2.6482529954646520e-05   3.9685520787154079e-06   3.5848487819590024e-06   1.1900645883333675e-05   1.3160307874200497e-05   3.1662725056281910e-05   2.9211491354630769e-05   4.9283568197239715e-05   3.9936682536954030e-05   5.2855299525565823e-05   3.8071651265468002e-05   4.0225411743480696e-05   2.4795393520813367e-05   2.0699380873206003e-05   8.6705425149511825e-06   5.7400291196715391e-06   3.0827407284291101e-07   1.6477209525721441e-05   1.1777946109166389e-05   3.1084862066196439e-05   2.6568714659136544e-05   4.0458118826019240e-05   3.2689452559856504e-05   3.8985658805898697e-05   2.8469504617091678e-05   2.8230089165856176e-05   1.7441493072720882e-05   1.6013620116397035e-05   7.1390756846555072e-06   1.1313072758112589e-05   4.3071214614498410e-06   5.7601227911030487e-06   1.0462465368397854e-05   4.3274678865270591e-05   2.8576129859009971e-05   4.4588310013126268e-05   3.7606517650062916e-05   3.3351046266114122e-05   2.7494872107550186e-05   1.7638164204978221e-05   1.4499334200574302e-05   7.5025097326107234e-06   7.1127765540090541e-06   9.1680070057439016e-06   9.4598760610979807e-06   2.0940281919542022e-05   1.9103975896479936e-05   1.7398165779321943e-05   2.8613562319201716e-05   4.8125743264391594e-05   2.9805282983228657e-05   3.5353040118245896e-05   3.1198507558768616e-05   1.5849402108262916e-05   1.8165025123331763e-05   2.3045663949485666e-06   1.0601974090627042e-05   2.1817675931361009e-06   1.2338284255290387e-05   1.3817463538024769e-05   2.0517912034039498e-05   2.7640928777443480e-05   2.8062788108542643e-05   2.0293998462060430e-05   2.8704550099520445e-05   2.4918570297903080e-05   1.4122643783880563e-05   1.2577446209980896e-05   1.6060609708015997e-05   3.8796666718122506e-06   1.6120771083928477e-05   3.9859917078901606e-06   2.0400592415245319e-05   1.1340207670057432e-05   2.5000225519495952e-05   1.9248329926572657e-05   2.5180662472171541e-05   2.0662075419112910e-05   1.9146189882478091e-05   9.9923355807086802e-06   1.0345579410573115e-05   1.3976512237928042e-06   8.2432733700953087e-07   2.3323973067729718e-06   5.1983363777589555e-07   1.0060321366713756e-05   1.8565218183536366e-07   1.9570152943516037e-05   4.6107998591030932e-07   2.4245009413742517e-05   8.2561870842995919e-07   2.0412796102699632e-05   6.9332031478389351e-07   1.0468703407742948e-05   2.2057010153294394e-07   2.2803083621405690e-06   6.2177428888275236e-07   </DataArray> 
</CellData> 
</Piece>
</UnstructuredGrid>
</VTKFile>