<?xml version="1.0"?>
<VTKFile type="UnstructuredGrid"  version="0.1"  >
<UnstructuredGrid>
<Piece  NumberOfPoints="25" NumberOfCells="32">
<Points>
<DataArray  type="Float64"  NumberOfComponents="3"  format="ascii">0 0 0  0.25 0 0  0.5 0 0  0.75 0 0  1 0 0  0 0.25 0  0.25 0.25 0  0.5 0.25 0  0.75 0.25 0  1 0.25 0  0 0.5 0  0.25 0.5 0  0.5 0.5 0  0.75 0.5 0  1 0.5 0  0 0.75 0  0.25 0.75 0  0.5 0.75 0  0.75 0.75 0  1 0.75 0  0 1 0  0.25 1 0  0.5 1 0  0.75 1 0  1 1 0  </DataArray>
</Points>
<Cells>
<DataArray  type="UInt32"  Name="connectivity"  format="ascii">0 1 6  0 5 6  1 2 7  1 6 7  2 3 8  2 7 8  3 4 9  3 8 9  5 6 11  5 10 11  6 7 12  6 11 12  7 8 13  7 12 13  8 9 14  8 13 14  10 11 16  10 15 16  11 12 17  11 16 17  12 13 18  12 17 18  13 14 19  13 18 19  15 16 21  15 20 21  16 17 22  16 21 22  17 18 23  17 22 23  18 19 24  18 23 24  </DataArray>
<DataArray  type="UInt32"  Name="offsets"  format="ascii">3 6 9 12 15 18 21 24 27 30 33 36 39 42 45 48 51 54 57 60 63 66 69 72 75 78 81 84 87 90 93 96 </DataArray>
<DataArray  type="UInt8"  Name="types"  format="ascii">5 5 5 5 5 5 5 5 5 5 5 5 5 5 5 5 5 5 5 5 5 5 5 5 5 5 5 5 5 5 5 5 </DataArray>
</Cells>
<CellData  Scalars="f_42086"> 
<DataArray  type="Float64"  Name="f_42086"  format="ascii">1.1687375008688149e-03   1.3048883363261448e-03   1.1753015347285842e-03   2.5029934916623209e-03   2.3843416093926651e-04   1.5455451496611350e-03   3.4455521852896811e-04   6.7915192052701997e-04   5.4427558563579859e-03   4.2161121820118970e-03   2.3516508029253094e-03   2.1900235246701287e-03   1.1991209986960225e-03   9.4599599987394431e-04   3.4717387024096823e-03   4.8174767281437651e-03   4.8119149808975659e-03   3.4668634212745176e-03   9.4922264959183876e-04   1.2005148615572667e-03   2.1695275933427448e-03   2.3303954816171223e-03   4.2309247196271249e-03   5.4444819939277831e-03   6.9502973976291998e-04   3.6226159951042861e-04   1.5370851320708136e-03   2.2938361403454334e-04   2.4944786803457446e-03   1.1807554278111942e-03   1.3171944121270803e-03   1.1808015384765420e-03   </DataArray> 
</CellData> 
</Piece>
</UnstructuredGrid>
</VTKFile>