<?xml version="1.0"?>
<VTKFile type="UnstructuredGrid"  version="0.1"  >
<UnstructuredGrid>
<Piece  NumberOfPoints="81" NumberOfCells="128">
<Points>
<DataArray  type="Float64"  NumberOfComponents="3"  format="ascii">0 0 0  0.125 0 0  0.25 0 0  0.375 0 0  0.5 0 0  0.625 0 0  0.75 0 0  0.875 0 0  1 0 0  0 0.125 0  0.125 0.125 0  0.25 0.125 0  0.375 0.125 0  0.5 0.125 0  0.625 0.125 0  0.75 0.125 0  0.875 0.125 0  1 0.125 0  0 0.25 0  0.125 0.25 0  0.25 0.25 0  0.375 0.25 0  0.5 0.25 0  0.625 0.25 0  0.75 0.25 0  0.875 0.25 0  1 0.25 0  0 0.375 0  0.125 0.375 0  0.25 0.375 0  0.375 0.375 0  0.5 0.375 0  0.625 0.375 0  0.75 0.375 0  0.875 0.375 0  1 0.375 0  0 0.5 0  0.125 0.5 0  0.25 0.5 0  0.375 0.5 0  0.5 0.5 0  0.625 0.5 0  0.75 0.5 0  0.875 0.5 0  1 0.5 0  0 0.625 0  0.125 0.625 0  0.25 0.625 0  0.375 0.625 0  0.5 0.625 0  0.625 0.625 0  0.75 0.625 0  0.875 0.625 0  1 0.625 0  0 0.75 0  0.125 0.75 0  0.25 0.75 0  0.375 0.75 0  0.5 0.75 0  0.625 0.75 0  0.75 0.75 0  0.875 0.75 0  1 0.75 0  0 0.875 0  0.125 0.875 0  0.25 0.875 0  0.375 0.875 0  0.5 0.875 0  0.625 0.875 0  0.75 0.875 0  0.875 0.875 0  1 0.875 0  0 1 0  0.125 1 0  0.25 1 0  0.375 1 0  0.5 1 0  0.625 1 0  0.75 1 0  0.875 1 0  1 1 0  </DataArray>
</Points>
<Cells>
<DataArray  type="UInt32"  Name="connectivity"  format="ascii">0 1 10  0 9 10  1 2 11  1 10 11  2 3 12  2 11 12  3 4 13  3 12 13  4 5 14  4 13 14  5 6 15  5 14 15  6 7 16  6 15 16  7 8 17  7 16 17  9 10 19  9 18 19  10 11 20  10 19 20  11 12 21  11 20 21  12 13 22  12 21 22  13 14 23  13 22 23  14 15 24  14 23 24  15 16 25  15 24 25  16 17 26  16 25 26  18 19 28  18 27 28  19 20 29  19 28 29  20 21 30  20 29 30  21 22 31  21 30 31  22 23 32  22 31 32  23 24 33  23 32 33  24 25 34  24 33 34  25 26 35  25 34 35  27 28 37  27 36 37  28 29 38  28 37 38  29 30 39  29 38 39  30 31 40  30 39 40  31 32 41  31 40 41  32 33 42  32 41 42  33 34 43  33 42 43  34 35 44  34 43 44  36 37 46  36 45 46  37 38 47  37 46 47  38 39 48  38 47 48  39 40 49  39 48 49  40 41 50  40 49 50  41 42 51  41 50 51  42 43 52  42 51 52  43 44 53  43 52 53  45 46 55  45 54 55  46 47 56  46 55 56  47 48 57  47 56 57  48 49 58  48 57 58  49 50 59  49 58 59  50 51 60  50 59 60  51 52 61  51 60 61  52 53 62  52 61 62  54 55 64  54 63 64  55 56 65  55 64 65  56 57 66  56 65 66  57 58 67  57 66 67  58 59 68  58 67 68  59 60 69  59 68 69  60 61 70  60 69 70  61 62 71  61 70 71  63 64 73  63 72 73  64 65 74  64 73 74  65 66 75  65 74 75  66 67 76  66 75 76  67 68 77  67 76 77  68 69 78  68 77 78  69 70 79  69 78 79  70 71 80  70 79 80  </DataArray>
<DataArray  type="UInt32"  Name="offsets"  format="ascii">3 6 9 12 15 18 21 24 27 30 33 36 39 42 45 48 51 54 57 60 63 66 69 72 75 78 81 84 87 90 93 96 99 102 105 108 111 114 117 120 123 126 129 132 135 138 141 144 147 150 153 156 159 162 165 168 171 174 177 180 183 186 189 192 195 198 201 204 207 210 213 216 219 222 225 228 231 234 237 240 243 246 249 252 255 258 261 264 267 270 273 276 279 282 285 288 291 294 297 300 303 306 309 312 315 318 321 324 327 330 333 336 339 342 345 348 351 354 357 360 363 366 369 372 375 378 381 384 </DataArray>
<DataArray  type="UInt8"  Name="types"  format="ascii">5 5 5 5 5 5 5 5 5 5 5 5 5 5 5 5 5 5 5 5 5 5 5 5 5 5 5 5 5 5 5 5 5 5 5 5 5 5 5 5 5 5 5 5 5 5 5 5 5 5 5 5 5 5 5 5 5 5 5 5 5 5 5 5 5 5 5 5 5 5 5 5 5 5 5 5 5 5 5 5 5 5 5 5 5 5 5 5 5 5 5 5 5 5 5 5 5 5 5 5 5 5 5 5 5 5 5 5 5 5 5 5 5 5 5 5 5 5 5 5 5 5 5 5 5 5 5 5 </DataArray>
</Cells>
<CellData  Scalars="f_35184"> 
<DataArray  type="Float64"  Name="f_35184"  format="ascii">5.8517789816532870e-08   1.0813093120150995e-07   3.3526757404358014e-09   1.3786600569817810e-08   3.0968072997865189e-09   1.7527200447951642e-09   9.2681977833708151e-09   4.5343452759235107e-09   1.5155345419895040e-08   1.1969995564730403e-08   1.5511930958043174e-08   1.7287314927536764e-08   7.0863586250207261e-09   1.6105358667558580e-08   1.2227870435541957e-06   6.1292004727239491e-08   2.2317416092332836e-08   1.2166249872473548e-08   4.0697517936657260e-09   3.4531323788152998e-09   1.1020274564754486e-09   7.1656693789790137e-10   4.2652989904187610e-09   3.2745860209415334e-09   6.3412083530553642e-09   7.5257027746280514e-09   3.0393275710365601e-09   7.7641810010651016e-09   1.2768786478037580e-08   5.9509779617717978e-09   4.0350865171116460e-08   3.6099548632178971e-08   4.7036784486673586e-09   1.1411630057919638e-08   1.0573900780950307e-09   2.5688374409580135e-09   2.2950769305124943e-09   2.2583422262126581e-09   3.7835367692818205e-09   3.4456988827890489e-09   2.7177346781893617e-09   3.6705705283004517e-09   8.1282390512145898e-10   2.0392936902369943e-09   3.4669043677141107e-09   2.1684808385299536e-09   2.1672033876100853e-08   1.1686812793757550e-08   1.4492064453620707e-08   1.5521757481257307e-08   5.7896740700626896e-09   5.6681214706849107e-09   4.3565329116872396e-09   3.5276356670936054e-09   2.8065772595220342e-09   2.2378556888986090e-09   8.3355008944153208e-10   8.2443258051159129e-10   3.2589859037151231e-10   1.3515863849535848e-10   1.1396605652347076e-09   1.0013094247342310e-09   8.6030861864532932e-09   2.5385649708035439e-09   1.9343750165534095e-08   1.3005515582017830e-08   9.1652939292274781e-09   5.4184936249158318e-09   4.0895010695548031e-09   2.0732469499646086e-09   1.0466239645233970e-09   5.1360500672042248e-10   1.3705988781463749e-10   2.2808371135976619e-10   8.6511695759184491e-10   1.5129905366177272e-09   1.2330381421165264e-09   3.4778947052618685e-09   4.4464051996854752e-09   4.9211905849797610e-09   1.3951300686378754e-08   6.1424204148716376e-09   6.2489843319789292e-09   1.9843551941011009e-09   1.6877486088294022e-09   6.7784477400883009e-10   1.5164708810566223e-10   5.2986901139785685e-10   1.0934571366377852e-09   1.1333920744807090e-09   2.4727608025185192e-09   2.6288415804156771e-09   2.8540726514262230e-09   4.7177552315167834e-09   5.4782626175347422e-09   6.9064631095289489e-09   4.9916534682538575e-09   5.2377039136004915e-09   2.8930977580989076e-09   1.3242627583609454e-08   1.8894518182855807e-09   4.4809013128380479e-09   1.2164436686463735e-09   1.6998558723530331e-09   2.1599304318098981e-09   8.2513698189764486e-10   3.4255411076898437e-09   1.2399000962415447e-09   3.1784970059836798e-09   1.9422491330331440e-09   4.7586199048502862e-09   5.6620345977826704e-09   3.1980239116000367e-08   7.3237297851381335e-07   2.3290496982049461e-08   3.3257053786239029e-08   1.1029377983893642e-08   1.2752552682550013e-08   3.4735786566994722e-09   4.7144983685361391e-09   1.2713887261092768e-09   1.8359545208971493e-09   2.9868005493917810e-09   3.1406231729774888e-09   1.1421250820434836e-08   8.3980368567046540e-09   1.6615460854201779e-08   5.0595789797830869e-08   </DataArray> 
</CellData> 
</Piece>
</UnstructuredGrid>
</VTKFile>