<?xml version="1.0"?>
<VTKFile type="UnstructuredGrid"  version="0.1"  >
<UnstructuredGrid>
<Piece  NumberOfPoints="81" NumberOfCells="128">
<Points>
<DataArray  type="Float64"  NumberOfComponents="3"  format="ascii">0 0 0  0.125 0 0  0.25 0 0  0.375 0 0  0.5 0 0  0.625 0 0  0.75 0 0  0.875 0 0  1 0 0  0 0.125 0  0.125 0.125 0  0.25 0.125 0  0.375 0.125 0  0.5 0.125 0  0.625 0.125 0  0.75 0.125 0  0.875 0.125 0  1 0.125 0  0 0.25 0  0.125 0.25 0  0.25 0.25 0  0.375 0.25 0  0.5 0.25 0  0.625 0.25 0  0.75 0.25 0  0.875 0.25 0  1 0.25 0  0 0.375 0  0.125 0.375 0  0.25 0.375 0  0.375 0.375 0  0.5 0.375 0  0.625 0.375 0  0.75 0.375 0  0.875 0.375 0  1 0.375 0  0 0.5 0  0.125 0.5 0  0.25 0.5 0  0.375 0.5 0  0.5 0.5 0  0.625 0.5 0  0.75 0.5 0  0.875 0.5 0  1 0.5 0  0 0.625 0  0.125 0.625 0  0.25 0.625 0  0.375 0.625 0  0.5 0.625 0  0.625 0.625 0  0.75 0.625 0  0.875 0.625 0  1 0.625 0  0 0.75 0  0.125 0.75 0  0.25 0.75 0  0.375 0.75 0  0.5 0.75 0  0.625 0.75 0  0.75 0.75 0  0.875 0.75 0  1 0.75 0  0 0.875 0  0.125 0.875 0  0.25 0.875 0  0.375 0.875 0  0.5 0.875 0  0.625 0.875 0  0.75 0.875 0  0.875 0.875 0  1 0.875 0  0 1 0  0.125 1 0  0.25 1 0  0.375 1 0  0.5 1 0  0.625 1 0  0.75 1 0  0.875 1 0  1 1 0  </DataArray>
</Points>
<Cells>
<DataArray  type="UInt32"  Name="connectivity"  format="ascii">0 1 10  0 9 10  1 2 11  1 10 11  2 3 12  2 11 12  3 4 13  3 12 13  4 5 14  4 13 14  5 6 15  5 14 15  6 7 16  6 15 16  7 8 17  7 16 17  9 10 19  9 18 19  10 11 20  10 19 20  11 12 21  11 20 21  12 13 22  12 21 22  13 14 23  13 22 23  14 15 24  14 23 24  15 16 25  15 24 25  16 17 26  16 25 26  18 19 28  18 27 28  19 20 29  19 28 29  20 21 30  20 29 30  21 22 31  21 30 31  22 23 32  22 31 32  23 24 33  23 32 33  24 25 34  24 33 34  25 26 35  25 34 35  27 28 37  27 36 37  28 29 38  28 37 38  29 30 39  29 38 39  30 31 40  30 39 40  31 32 41  31 40 41  32 33 42  32 41 42  33 34 43  33 42 43  34 35 44  34 43 44  36 37 46  36 45 46  37 38 47  37 46 47  38 39 48  38 47 48  39 40 49  39 48 49  40 41 50  40 49 50  41 42 51  41 50 51  42 43 52  42 51 52  43 44 53  43 52 53  45 46 55  45 54 55  46 47 56  46 55 56  47 48 57  47 56 57  48 49 58  48 57 58  49 50 59  49 58 59  50 51 60  50 59 60  51 52 61  51 60 61  52 53 62  52 61 62  54 55 64  54 63 64  55 56 65  55 64 65  56 57 66  56 65 66  57 58 67  57 66 67  58 59 68  58 67 68  59 60 69  59 68 69  60 61 70  60 69 70  61 62 71  61 70 71  63 64 73  63 72 73  64 65 74  64 73 74  65 66 75  65 74 75  66 67 76  66 75 76  67 68 77  67 76 77  68 69 78  68 77 78  69 70 79  69 78 79  70 71 80  70 79 80  </DataArray>
<DataArray  type="UInt32"  Name="offsets"  format="ascii">3 6 9 12 15 18 21 24 27 30 33 36 39 42 45 48 51 54 57 60 63 66 69 72 75 78 81 84 87 90 93 96 99 102 105 108 111 114 117 120 123 126 129 132 135 138 141 144 147 150 153 156 159 162 165 168 171 174 177 180 183 186 189 192 195 198 201 204 207 210 213 216 219 222 225 228 231 234 237 240 243 246 249 252 255 258 261 264 267 270 273 276 279 282 285 288 291 294 297 300 303 306 309 312 315 318 321 324 327 330 333 336 339 342 345 348 351 354 357 360 363 366 369 372 375 378 381 384 </DataArray>
<DataArray  type="UInt8"  Name="types"  format="ascii">5 5 5 5 5 5 5 5 5 5 5 5 5 5 5 5 5 5 5 5 5 5 5 5 5 5 5 5 5 5 5 5 5 5 5 5 5 5 5 5 5 5 5 5 5 5 5 5 5 5 5 5 5 5 5 5 5 5 5 5 5 5 5 5 5 5 5 5 5 5 5 5 5 5 5 5 5 5 5 5 5 5 5 5 5 5 5 5 5 5 5 5 5 5 5 5 5 5 5 5 5 5 5 5 5 5 5 5 5 5 5 5 5 5 5 5 5 5 5 5 5 5 5 5 5 5 5 5 </DataArray>
</Cells>
<CellData  Scalars="f_109959"> 
<DataArray  type="Float64"  Name="f_109959"  format="ascii">1.0206273638546159e-05   9.4870039871361260e-06   3.9332446135331961e-06   5.5325809063167176e-06   5.7271786443099688e-07   4.3871859368339030e-06   6.9601842401380252e-07   7.6408211217829079e-06   2.4338509771634804e-06   1.0803137514231145e-05   3.4210451104455392e-06   1.0337280326248121e-05   2.5395257672133633e-06   6.0799381141240861e-06   7.7234033771323382e-07   1.3184639663976524e-06   2.4149868706054856e-06   1.7260481328291228e-06   1.4130047829879746e-06   1.8468594960930935e-06   4.8034088804331189e-06   4.5723713482180190e-06   8.7543913890049640e-06   6.5994249427371803e-06   9.7738326840485264e-06   5.8770430759166348e-06   7.1917387571803003e-06   2.9519252019646014e-06   3.5127941987823429e-06   3.9782239633600559e-07   5.5880490761122349e-07   8.6348945449387277e-07   2.0458142891678222e-06   5.4038007865601568e-07   4.2733487805966430e-06   4.1331983017708002e-06   6.2017225637083187e-06   5.4916368973748269e-06   6.1415623310269810e-06   4.1992858747040012e-06   4.4040836402137571e-06   1.6068391269223679e-06   2.9315458903883545e-06   1.3424015148879231e-07   3.6751996075132549e-06   1.5111916191931790e-06   2.0820108817084805e-06   5.3034289110100647e-06   6.1436859837688084e-06   2.4356044475404254e-06   6.5294263005235407e-06   6.7782965923564775e-06   4.7495925071678085e-06   4.7891155056699169e-06   2.3152153627619848e-06   1.7075491391748581e-06   1.3125808394680486e-06   1.7905276940329387e-07   2.9140458738878648e-06   1.5326369699393016e-06   6.2602774844434184e-06   4.9994865336951027e-06   3.3956142208224394e-06   8.0799320083465063e-06   8.2290567569774124e-06   3.5376704810332782e-06   5.2561889187198556e-06   6.3887461807762190e-06   1.7161448393033275e-06   3.0294711064980952e-06   1.7969847507117536e-07   1.2817235486451486e-06   1.5591749602557102e-06   2.1426485747192774e-06   4.6449380719914909e-06   4.5580698350987678e-06   6.7993466490230431e-06   6.4594571361793170e-06   2.4468031249769499e-06   6.2469940842842471e-06   5.6196201055641239e-06   2.2840190351570143e-06   1.7323997838661474e-06   3.7869336228999161e-06   1.1857784128325029e-07   2.8854028718156257e-06   1.4044958389600244e-06   4.2215292162304508e-06   3.9899218745325644e-06   5.9675705519323070e-06   5.4409927265322740e-06   6.1645781268425995e-06   4.2606833991007691e-06   4.3751664362773870e-06   5.7437393748062594e-07   2.1642079985447226e-06   1.0291215881793687e-06   6.1143547359203401e-07   3.1856770670570388e-07   3.4269407401613769e-06   2.6731345401066480e-06   6.9941325852788251e-06   5.6010682880845565e-06   9.6285142263341672e-06   6.4904373392199386e-06   8.7764068889077668e-06   4.6141423959422726e-06   4.9257880385783536e-06   1.8475596866484566e-06   1.4317994151356503e-06   1.5447811914065799e-06   2.1888343977541510e-06   1.1528897117180970e-06   6.7534915987001628e-07   5.6617957174702415e-06   2.2824278530713571e-06   9.9469892981441944e-06   3.1529420343867643e-06   1.0667699785811573e-05   2.3070189244755346e-06   7.7246669574755398e-06   6.8842122636069582e-07   4.4123920494798668e-06   5.0478870578035920e-07   5.2139916994802144e-06   3.6265951644365065e-06   8.9840164720483134e-06   9.6705285634269431e-06   </DataArray> 
</CellData> 
</Piece>
</UnstructuredGrid>
</VTKFile>