<?xml version="1.0"?>
<VTKFile type="UnstructuredGrid"  version="0.1"  >
<UnstructuredGrid>
<Piece  NumberOfPoints="1089" NumberOfCells="2048">
<Points>
<DataArray  type="Float64"  NumberOfComponents="3"  format="ascii">0 0 0  0.03125 0 0  0.0625 0 0  0.09375 0 0  0.125 0 0  0.15625 0 0  0.1875 0 0  0.21875 0 0  0.25 0 0  0.28125 0 0  0.3125 0 0  0.34375 0 0  0.375 0 0  0.40625 0 0  0.4375 0 0  0.46875 0 0  0.5 0 0  0.53125 0 0  0.5625 0 0  0.59375 0 0  0.625 0 0  0.65625 0 0  0.6875 0 0  0.71875 0 0  0.75 0 0  0.78125 0 0  0.8125 0 0  0.84375 0 0  0.875 0 0  0.90625 0 0  0.9375 0 0  0.96875 0 0  1 0 0  0 0.03125 0  0.03125 0.03125 0  0.0625 0.03125 0  0.09375 0.03125 0  0.125 0.03125 0  0.15625 0.03125 0  0.1875 0.03125 0  0.21875 0.03125 0  0.25 0.03125 0  0.28125 0.03125 0  0.3125 0.03125 0  0.34375 0.03125 0  0.375 0.03125 0  0.40625 0.03125 0  0.4375 0.03125 0  0.46875 0.03125 0  0.5 0.03125 0  0.53125 0.03125 0  0.5625 0.03125 0  0.59375 0.03125 0  0.625 0.03125 0  0.65625 0.03125 0  0.6875 0.03125 0  0.71875 0.03125 0  0.75 0.03125 0  0.78125 0.03125 0  0.8125 0.03125 0  0.84375 0.03125 0  0.875 0.03125 0  0.90625 0.03125 0  0.9375 0.03125 0  0.96875 0.03125 0  1 0.03125 0  0 0.0625 0  0.03125 0.0625 0  0.0625 0.0625 0  0.09375 0.0625 0  0.125 0.0625 0  0.15625 0.0625 0  0.1875 0.0625 0  0.21875 0.0625 0  0.25 0.0625 0  0.28125 0.0625 0  0.3125 0.0625 0  0.34375 0.0625 0  0.375 0.0625 0  0.40625 0.0625 0  0.4375 0.0625 0  0.46875 0.0625 0  0.5 0.0625 0  0.53125 0.0625 0  0.5625 0.0625 0  0.59375 0.0625 0  0.625 0.0625 0  0.65625 0.0625 0  0.6875 0.0625 0  0.71875 0.0625 0  0.75 0.0625 0  0.78125 0.0625 0  0.8125 0.0625 0  0.84375 0.0625 0  0.875 0.0625 0  0.90625 0.0625 0  0.9375 0.0625 0  0.96875 0.0625 0  1 0.0625 0  0 0.09375 0  0.03125 0.09375 0  0.0625 0.09375 0  0.09375 0.09375 0  0.125 0.09375 0  0.15625 0.09375 0  0.1875 0.09375 0  0.21875 0.09375 0  0.25 0.09375 0  0.28125 0.09375 0  0.3125 0.09375 0  0.34375 0.09375 0  0.375 0.09375 0  0.40625 0.09375 0  0.4375 0.09375 0  0.46875 0.09375 0  0.5 0.09375 0  0.53125 0.09375 0  0.5625 0.09375 0  0.59375 0.09375 0  0.625 0.09375 0  0.65625 0.09375 0  0.6875 0.09375 0  0.71875 0.09375 0  0.75 0.09375 0  0.78125 0.09375 0  0.8125 0.09375 0  0.84375 0.09375 0  0.875 0.09375 0  0.90625 0.09375 0  0.9375 0.09375 0  0.96875 0.09375 0  1 0.09375 0  0 0.125 0  0.03125 0.125 0  0.0625 0.125 0  0.09375 0.125 0  0.125 0.125 0  0.15625 0.125 0  0.1875 0.125 0  0.21875 0.125 0  0.25 0.125 0  0.28125 0.125 0  0.3125 0.125 0  0.34375 0.125 0  0.375 0.125 0  0.40625 0.125 0  0.4375 0.125 0  0.46875 0.125 0  0.5 0.125 0  0.53125 0.125 0  0.5625 0.125 0  0.59375 0.125 0  0.625 0.125 0  0.65625 0.125 0  0.6875 0.125 0  0.71875 0.125 0  0.75 0.125 0  0.78125 0.125 0  0.8125 0.125 0  0.84375 0.125 0  0.875 0.125 0  0.90625 0.125 0  0.9375 0.125 0  0.96875 0.125 0  1 0.125 0  0 0.15625 0  0.03125 0.15625 0  0.0625 0.15625 0  0.09375 0.15625 0  0.125 0.15625 0  0.15625 0.15625 0  0.1875 0.15625 0  0.21875 0.15625 0  0.25 0.15625 0  0.28125 0.15625 0  0.3125 0.15625 0  0.34375 0.15625 0  0.375 0.15625 0  0.40625 0.15625 0  0.4375 0.15625 0  0.46875 0.15625 0  0.5 0.15625 0  0.53125 0.15625 0  0.5625 0.15625 0  0.59375 0.15625 0  0.625 0.15625 0  0.65625 0.15625 0  0.6875 0.15625 0  0.71875 0.15625 0  0.75 0.15625 0  0.78125 0.15625 0  0.8125 0.15625 0  0.84375 0.15625 0  0.875 0.15625 0  0.90625 0.15625 0  0.9375 0.15625 0  0.96875 0.15625 0  1 0.15625 0  0 0.1875 0  0.03125 0.1875 0  0.0625 0.1875 0  0.09375 0.1875 0  0.125 0.1875 0  0.15625 0.1875 0  0.1875 0.1875 0  0.21875 0.1875 0  0.25 0.1875 0  0.28125 0.1875 0  0.3125 0.1875 0  0.34375 0.1875 0  0.375 0.1875 0  0.40625 0.1875 0  0.4375 0.1875 0  0.46875 0.1875 0  0.5 0.1875 0  0.53125 0.1875 0  0.5625 0.1875 0  0.59375 0.1875 0  0.625 0.1875 0  0.65625 0.1875 0  0.6875 0.1875 0  0.71875 0.1875 0  0.75 0.1875 0  0.78125 0.1875 0  0.8125 0.1875 0  0.84375 0.1875 0  0.875 0.1875 0  0.90625 0.1875 0  0.9375 0.1875 0  0.96875 0.1875 0  1 0.1875 0  0 0.21875 0  0.03125 0.21875 0  0.0625 0.21875 0  0.09375 0.21875 0  0.125 0.21875 0  0.15625 0.21875 0  0.1875 0.21875 0  0.21875 0.21875 0  0.25 0.21875 0  0.28125 0.21875 0  0.3125 0.21875 0  0.34375 0.21875 0  0.375 0.21875 0  0.40625 0.21875 0  0.4375 0.21875 0  0.46875 0.21875 0  0.5 0.21875 0  0.53125 0.21875 0  0.5625 0.21875 0  0.59375 0.21875 0  0.625 0.21875 0  0.65625 0.21875 0  0.6875 0.21875 0  0.71875 0.21875 0  0.75 0.21875 0  0.78125 0.21875 0  0.8125 0.21875 0  0.84375 0.21875 0  0.875 0.21875 0  0.90625 0.21875 0  0.9375 0.21875 0  0.96875 0.21875 0  1 0.21875 0  0 0.25 0  0.03125 0.25 0  0.0625 0.25 0  0.09375 0.25 0  0.125 0.25 0  0.15625 0.25 0  0.1875 0.25 0  0.21875 0.25 0  0.25 0.25 0  0.28125 0.25 0  0.3125 0.25 0  0.34375 0.25 0  0.375 0.25 0  0.40625 0.25 0  0.4375 0.25 0  0.46875 0.25 0  0.5 0.25 0  0.53125 0.25 0  0.5625 0.25 0  0.59375 0.25 0  0.625 0.25 0  0.65625 0.25 0  0.6875 0.25 0  0.71875 0.25 0  0.75 0.25 0  0.78125 0.25 0  0.8125 0.25 0  0.84375 0.25 0  0.875 0.25 0  0.90625 0.25 0  0.9375 0.25 0  0.96875 0.25 0  1 0.25 0  0 0.28125 0  0.03125 0.28125 0  0.0625 0.28125 0  0.09375 0.28125 0  0.125 0.28125 0  0.15625 0.28125 0  0.1875 0.28125 0  0.21875 0.28125 0  0.25 0.28125 0  0.28125 0.28125 0  0.3125 0.28125 0  0.34375 0.28125 0  0.375 0.28125 0  0.40625 0.28125 0  0.4375 0.28125 0  0.46875 0.28125 0  0.5 0.28125 0  0.53125 0.28125 0  0.5625 0.28125 0  0.59375 0.28125 0  0.625 0.28125 0  0.65625 0.28125 0  0.6875 0.28125 0  0.71875 0.28125 0  0.75 0.28125 0  0.78125 0.28125 0  0.8125 0.28125 0  0.84375 0.28125 0  0.875 0.28125 0  0.90625 0.28125 0  0.9375 0.28125 0  0.96875 0.28125 0  1 0.28125 0  0 0.3125 0  0.03125 0.3125 0  0.0625 0.3125 0  0.09375 0.3125 0  0.125 0.3125 0  0.15625 0.3125 0  0.1875 0.3125 0  0.21875 0.3125 0  0.25 0.3125 0  0.28125 0.3125 0  0.3125 0.3125 0  0.34375 0.3125 0  0.375 0.3125 0  0.40625 0.3125 0  0.4375 0.3125 0  0.46875 0.3125 0  0.5 0.3125 0  0.53125 0.3125 0  0.5625 0.3125 0  0.59375 0.3125 0  0.625 0.3125 0  0.65625 0.3125 0  0.6875 0.3125 0  0.71875 0.3125 0  0.75 0.3125 0  0.78125 0.3125 0  0.8125 0.3125 0  0.84375 0.3125 0  0.875 0.3125 0  0.90625 0.3125 0  0.9375 0.3125 0  0.96875 0.3125 0  1 0.3125 0  0 0.34375 0  0.03125 0.34375 0  0.0625 0.34375 0  0.09375 0.34375 0  0.125 0.34375 0  0.15625 0.34375 0  0.1875 0.34375 0  0.21875 0.34375 0  0.25 0.34375 0  0.28125 0.34375 0  0.3125 0.34375 0  0.34375 0.34375 0  0.375 0.34375 0  0.40625 0.34375 0  0.4375 0.34375 0  0.46875 0.34375 0  0.5 0.34375 0  0.53125 0.34375 0  0.5625 0.34375 0  0.59375 0.34375 0  0.625 0.34375 0  0.65625 0.34375 0  0.6875 0.34375 0  0.71875 0.34375 0  0.75 0.34375 0  0.78125 0.34375 0  0.8125 0.34375 0  0.84375 0.34375 0  0.875 0.34375 0  0.90625 0.34375 0  0.9375 0.34375 0  0.96875 0.34375 0  1 0.34375 0  0 0.375 0  0.03125 0.375 0  0.0625 0.375 0  0.09375 0.375 0  0.125 0.375 0  0.15625 0.375 0  0.1875 0.375 0  0.21875 0.375 0  0.25 0.375 0  0.28125 0.375 0  0.3125 0.375 0  0.34375 0.375 0  0.375 0.375 0  0.40625 0.375 0  0.4375 0.375 0  0.46875 0.375 0  0.5 0.375 0  0.53125 0.375 0  0.5625 0.375 0  0.59375 0.375 0  0.625 0.375 0  0.65625 0.375 0  0.6875 0.375 0  0.71875 0.375 0  0.75 0.375 0  0.78125 0.375 0  0.8125 0.375 0  0.84375 0.375 0  0.875 0.375 0  0.90625 0.375 0  0.9375 0.375 0  0.96875 0.375 0  1 0.375 0  0 0.40625 0  0.03125 0.40625 0  0.0625 0.40625 0  0.09375 0.40625 0  0.125 0.40625 0  0.15625 0.40625 0  0.1875 0.40625 0  0.21875 0.40625 0  0.25 0.40625 0  0.28125 0.40625 0  0.3125 0.40625 0  0.34375 0.40625 0  0.375 0.40625 0  0.40625 0.40625 0  0.4375 0.40625 0  0.46875 0.40625 0  0.5 0.40625 0  0.53125 0.40625 0  0.5625 0.40625 0  0.59375 0.40625 0  0.625 0.40625 0  0.65625 0.40625 0  0.6875 0.40625 0  0.71875 0.40625 0  0.75 0.40625 0  0.78125 0.40625 0  0.8125 0.40625 0  0.84375 0.40625 0  0.875 0.40625 0  0.90625 0.40625 0  0.9375 0.40625 0  0.96875 0.40625 0  1 0.40625 0  0 0.4375 0  0.03125 0.4375 0  0.0625 0.4375 0  0.09375 0.4375 0  0.125 0.4375 0  0.15625 0.4375 0  0.1875 0.4375 0  0.21875 0.4375 0  0.25 0.4375 0  0.28125 0.4375 0  0.3125 0.4375 0  0.34375 0.4375 0  0.375 0.4375 0  0.40625 0.4375 0  0.4375 0.4375 0  0.46875 0.4375 0  0.5 0.4375 0  0.53125 0.4375 0  0.5625 0.4375 0  0.59375 0.4375 0  0.625 0.4375 0  0.65625 0.4375 0  0.6875 0.4375 0  0.71875 0.4375 0  0.75 0.4375 0  0.78125 0.4375 0  0.8125 0.4375 0  0.84375 0.4375 0  0.875 0.4375 0  0.90625 0.4375 0  0.9375 0.4375 0  0.96875 0.4375 0  1 0.4375 0  0 0.46875 0  0.03125 0.46875 0  0.0625 0.46875 0  0.09375 0.46875 0  0.125 0.46875 0  0.15625 0.46875 0  0.1875 0.46875 0  0.21875 0.46875 0  0.25 0.46875 0  0.28125 0.46875 0  0.3125 0.46875 0  0.34375 0.46875 0  0.375 0.46875 0  0.40625 0.46875 0  0.4375 0.46875 0  0.46875 0.46875 0  0.5 0.46875 0  0.53125 0.46875 0  0.5625 0.46875 0  0.59375 0.46875 0  0.625 0.46875 0  0.65625 0.46875 0  0.6875 0.46875 0  0.71875 0.46875 0  0.75 0.46875 0  0.78125 0.46875 0  0.8125 0.46875 0  0.84375 0.46875 0  0.875 0.46875 0  0.90625 0.46875 0  0.9375 0.46875 0  0.96875 0.46875 0  1 0.46875 0  0 0.5 0  0.03125 0.5 0  0.0625 0.5 0  0.09375 0.5 0  0.125 0.5 0  0.15625 0.5 0  0.1875 0.5 0  0.21875 0.5 0  0.25 0.5 0  0.28125 0.5 0  0.3125 0.5 0  0.34375 0.5 0  0.375 0.5 0  0.40625 0.5 0  0.4375 0.5 0  0.46875 0.5 0  0.5 0.5 0  0.53125 0.5 0  0.5625 0.5 0  0.59375 0.5 0  0.625 0.5 0  0.65625 0.5 0  0.6875 0.5 0  0.71875 0.5 0  0.75 0.5 0  0.78125 0.5 0  0.8125 0.5 0  0.84375 0.5 0  0.875 0.5 0  0.90625 0.5 0  0.9375 0.5 0  0.96875 0.5 0  1 0.5 0  0 0.53125 0  0.03125 0.53125 0  0.0625 0.53125 0  0.09375 0.53125 0  0.125 0.53125 0  0.15625 0.53125 0  0.1875 0.53125 0  0.21875 0.53125 0  0.25 0.53125 0  0.28125 0.53125 0  0.3125 0.53125 0  0.34375 0.53125 0  0.375 0.53125 0  0.40625 0.53125 0  0.4375 0.53125 0  0.46875 0.53125 0  0.5 0.53125 0  0.53125 0.53125 0  0.5625 0.53125 0  0.59375 0.53125 0  0.625 0.53125 0  0.65625 0.53125 0  0.6875 0.53125 0  0.71875 0.53125 0  0.75 0.53125 0  0.78125 0.531
[...]
<CellData  Scalars="f_41949"> 
<DataArray  type="Float64"  Name="f_41949"  format="ascii">1.2084713758440150e-08   1.1833465592941001e-08   1.3149664631582969e-08   1.6427593880013048e-08   1.3448440047285626e-08   1.6836667505222599e-08   1.3157039983934375e-08   1.6428034262892412e-08   1.2400205886825481e-08   1.5402110952531764e-08   1.1286244593680758e-08   1.3922373715898567e-08   9.9166836495468536e-09   1.2134038877313945e-08   8.3890009819913502e-09   1.0170721050552982e-08   6.7965130437028244e-09   8.1560281454712592e-09   5.2270080549479325e-09   6.2028879224131329e-09   3.7608608324192538e-09   4.4118998593880901e-09   2.4690152050891952e-09   2.8693697028817507e-09   1.4110634590640402e-09   1.6453973673164520e-09   6.3357487087644180e-10   7.9224851240100134e-10   1.6878066876696927e-10   3.4316201509530875e-10   3.3691431057686543e-11   3.1169437293381629e-10   2.2969693466144685e-10   6.9166282405356180e-10   7.4267452100462022e-10   1.4577152908516504e-09   1.5436089609775589e-09   2.5665246082241255e-09   2.5897043006133217e-09   3.9585760645967457e-09   3.8259463106494012e-09   5.5604909888732685e-09   5.1870529469762346e-09   7.2878050996125763e-09   6.5997291867723886e-09   9.0480985572925022e-09   7.9851200869337544e-09   1.0744354431876238e-08   9.2613275063151579e-09   1.2278401369500085e-08   1.0345810466035017e-08   1.3554268734773296e-08   1.1157397427630582e-08   1.4481233415551542e-08   1.1617419059912019e-08   1.4976226733127567e-08   1.1648869509785977e-08   1.4964982117753345e-08   1.1170621237600014e-08   1.4380477523582154e-08   1.0076493247425393e-08   1.3154588294179514e-08   6.5545644922984372e-09   1.1189327727870807e-08   1.5726413210590351e-08   1.1900985287336817e-08   1.6238577227770192e-08   1.5927668547243045e-08   1.6052520665288215e-08   1.5602121590494595e-08   1.5278964964498331e-08   1.4784299449491460e-08   1.4041731995383126e-08   1.3553024139789656e-08   1.2464279178870083e-08   1.2013894722985942e-08   1.0667530362429871e-08   1.0279072012947951e-08   8.7677528652023084e-09   8.4594255161579490e-09   6.8742354097066872e-09   6.6599852153431895e-09   5.0868712472498360e-09   4.9766672575489209e-09   3.4937734368658235e-09   3.4936022369574238e-09   2.1690665411415334e-09   2.2808900642654580e-09   1.1709893775504031e-09   1.3927805630535852e-09   5.4042142144272324e-10   8.6633011339777611e-10   2.9991988668641524e-10   7.2058942005437874e-10   4.5332816790546070e-10   9.5636456062521396e-10   9.8598991337301427e-10   1.5565735686095312e-09   1.8655768800950061e-09   2.4871982871806288e-09   3.0435133966939024e-09   3.6988082447441753e-09   4.4569563854125582e-09   5.1286112258690075e-09   6.0312682488969024e-09   6.7029651257645297e-09   7.6829013639467557e-09   8.3402685575835250e-09   9.3225983918185927e-09   9.9541344924595564e-09   1.0858803307100942e-08   1.1456743050393566e-08   1.2201175885513281e-08   1.2762268020832803e-08   1.3264111414429242e-08   1.3790279876984591e-08   1.3970197954008992e-08   1.4469053663827624e-08   1.4253626322518346e-08   1.4738776191138002e-08   1.4063809501786689e-08   1.4554833789011755e-08   1.3370333597890020e-08   1.3891999702797779e-08   1.2174815321173038e-08   1.2753139801710442e-08   9.1127515047949431e-09   1.1202998109314412e-08   1.4993566176731068e-08   1.1107985688195353e-08   1.4763667370110675e-08   1.4611719621013922e-08   1.4128545916696544e-08   1.3870043143395223e-08   1.3111051328187201e-08   1.2821991141139645e-08   1.1787840463271202e-08   1.1514781011697216e-08   1.0252036316335383e-08   1.0026441483369219e-08   8.6010900677833742e-09   8.4448944822839237e-09   6.9307501238860594e-09   6.8589174746378762e-09   5.3310011810958635e-09   5.3528295898295740e-09   3.8829014510497203e-09   4.0027502114544234e-09   2.6560110433129927e-09   2.8737820702345643e-09   1.7063239325991021e-09   2.0178767601491528e-09   1.0746979464302626e-09   1.4722920157365281e-09   7.8580637144643982e-10   1.2586152284295908e-09   8.4763840441547541e-10   1.3823511834514500e-09   1.2515664666339776e-09   1.8330738934098282e-09   1.9729828800129242e-09   2.5851332950365060e-09   2.9724901569886571e-09   3.5988932621509279e-09   4.1976103983652128e-09   4.8224612226158127e-09   5.5849616066538336e-09   6.1938537796593546e-09   7.0628334223996605e-09   7.6435286574729299e-09   8.5540831335492413e-09   9.0972022725020699e-09   9.9792661848899762e-09   1.0478865475942540e-08   1.1259915640076887e-08   1.1713908908818507e-08   1.2321894904055900e-08   1.2732275971014694e-08   1.3098772468941819e-08   1.3471579300401477e-08   1.3535217132997083e-08   1.3880154199533925e-08   1.3590516405946010e-08   1.3920102678416809e-08   1.3242587115483247e-08   1.3570580873304264e-08   1.2493744026393511e-08   1.2832185297966840e-08   1.1382993532276918e-08   1.1735372957343135e-08   8.8238978821944814e-09   1.0362180450777015e-08   1.3437476538151662e-08   9.7809718630628199e-09   1.2797752906550778e-08   1.2738757198955360e-08   1.1913800158816705e-08   1.1787277585675132e-08   1.0798610054275664e-08   1.0661524544335581e-08   9.5085090452069706e-09   9.3987779676069958e-09   8.1160391525034983e-09   8.0592704360739220e-09   6.6981907585340549e-09   6.7112090542372783e-09   5.3302261161071567e-09   5.4229429315131097e-09   4.0816580303662121e-09   4.2582308553070816e-09   3.0132950410414594e-09   3.2729729784431193e-09   2.1749973446639356e-09   2.5128343280374548e-09   1.6040222977099146e-09   2.0115512338779737e-09   1.3239185400947908e-09   1.7898352183395254e-09   1.3439561242347779e-09   1.8548340631045834e-09   1.6590865608488332e-09   2.2001254281581480e-09   2.2504221784397202e-09   2.8062198619700916e-09   3.0862139145281547e-09   3.6415439027637533e-09   4.1232937750640623e-09   4.6638640220253771e-09   5.3089348286218666e-09   5.8221008919183187e-09   6.5830692836866995e-09   7.0584726127344004e-09   7.8807951461938074e-09   8.3108964099147564e-09   9.1350952131197654e-09   9.5155719313332226e-09   1.0279689708318233e-08   1.0609666546801814e-08   1.1251946765851041e-08   1.1534024917191530e-08   1.1995784665708900e-08   1.2235832892011181e-08   1.2464519189362610e-08   1.2671182200457361e-08   1.2623647395629180e-08   1.2807514457461850e-08   1.2453645185873206e-08   1.2625991263255786e-08   1.1953087758096922e-08   1.2124001123095464e-08   1.1143037385366026e-08   1.1318420966932126e-08   1.0074947513445530e-08   1.0251072816681383e-08   7.9476506474599034e-09   8.9979724333026919e-09   1.1403069053758635e-08   8.1603373817541625e-09   1.0552514661024655e-08   1.0561058925504569e-08   9.5727050304759636e-09   9.5441350051370242e-09   8.4811629760321264e-09   8.4573108517677163e-09   7.3219961535423875e-09   7.3319762009044804e-09   6.1508106961203534e-09   6.2136359827533331e-09   5.0257648221431925e-09   5.1525705926033976e-09   4.0023160962145443e-09   4.1978577329542659e-09   3.1298164174439950e-09   3.3935664050353424e-09   2.4491375557298066e-09   2.7762007527512406e-09   1.9909997926824784e-09   2.3729543272756987e-09   1.7748759224010857e-09   2.2005878470356435e-09   1.8084166499118585e-09   2.2648472769146974e-09   2.0873678618401848e-09   2.5603762304423908e-09   2.5959549914135958e-09   3.0710872655918499e-09   3.3077058525407467e-09   3.7709562497343555e-09   4.1866755494531175e-09   4.6251987131615178e-09   5.1890278332309090e-09   5.5917798396645932e-09   6.2649181409068272e-09   6.6232021405185629e-09   7.3606156348350443e-09   7.6685080881446963e-09   8.4207956991091256e-09   8.6754299097542193e-09   9.3909311929066209e-09   9.5926160250152473e-09   1.0219710842997216e-08   1.0371863819814228e-08   1.0861417077353066e-08   1.0970292208414077e-08   1.1278204545447294e-08   1.1352395831406071e-08   1.1442237859520524e-08   1.1491938282661606e-08   1.1337682157417063e-08   1.1373670657315312e-08   1.0962616165335690e-08   1.0994917934873050e-08   1.0331094559991172e-08   1.0367182793419568e-08   9.4758152741730115e-09   9.5180762322237198e-09   8.4517185903792590e-09   8.4938866046859236e-09   6.7376566127702213e-09   7.3619317228434121e-09   9.1614986771422735e-09   6.4373416320788017e-09   8.2361945269840172e-09   8.2980860830988226e-09   7.2750469362021127e-09   7.3197900729916800e-09   6.2980628851139383e-09   6.3561814237807692e-09   5.3392306280207058e-09   5.4319391477309293e-09   4.4387454653182906e-09   4.5788966418941339e-09   3.6370216680657359e-09   3.8305584049768326e-09   2.9707356699986231e-09   3.2179635825925037e-09   2.4702399836163020e-09   2.7669064377032356e-09   2.1578727051115470e-09   2.4961352447627992e-09   2.0469132827833499e-09   2.4162518746589021e-09   2.1410631635771654e-09   2.5291584419427016e-09   2.4343874092312003e-09   2.8279675425764698e-09   2.9116744573914410e-09   3.2973225362823584e-09   3.5491756938413713e-09   3.9140835062230506e-09   4.3156838710017838e-09   4.6483345272174768e-09   5.1739040088364509e-09   5.4646642531960440e-09   6.0820643936891349e-09   6.3236671970683560e-09   6.9957098558992863e-09   7.1836087614083768e-09   7.8696154227279803e-09   8.0021938821648909e-09   8.6597562266983572e-09   8.7383776002016549e-09   9.3252695755143643e-09   9.3541563658677974e-09   9.8303477116610093e-09   9.8162817626278018e-09   1.0146005585616410e-08   1.0097844088402339e-08   1.0251678268178047e-08   1.0179682779978691e-08   1.0136620461265281e-08   1.0051595879910689e-08   9.8011115074944751e-09   9.7133448919055445e-09   9.2575186088041114e-09   9.1754877045489931e-09   8.5313233546897486e-09   8.4601140496510655e-09   7.6621656691523481e-09   7.6015521010307766e-09   6.7044762914083029e-09   6.6468778615500228e-09   5.3814344534923556e-09   5.6552392248681753e-09   6.9281091006459223e-09   4.7638944466479597e-09   6.0268149608811645e-09   6.1302169898412615e-09   5.1671027148358901e-09   5.2642478596295541e-09   4.3668076890967076e-09   4.4798162946607969e-09   3.6497973099049426e-09   3.7932686803246241e-09   3.0418440301706390e-09   3.2233593008915317e-09   2.5668983700146943e-09   2.7881114213923492e-09   2.2444151633112573e-09   2.5021960153785601e-09   2.0876238462601132e-09   2.3751266474862469e-09   2.1025207566289069e-09   2.4101777232382990e-09   2.2874186561494963e-09   2.6038761827129128e-09   2.6329493838289754e-09   2.9459513010255796e-09   3.1224510135558260e-09   3.4196629321088446e-09   3.7326864348584485e-09   4.0024485569193211e-09   4.4348446609145380e-09   4.6668373751019587e-09   5.1957753584513086e-09   5.3815810840965382e-09   5.9794044199641199e-09   6.1129497739811616e-09   6.7482756228423466e-09   6.8261396554543182e-09   7.4651614910268849e-09   7.4867382381277740e-09   8.0946859255181892e-09   8.0621926706619351e-09   8.6049023167188491e-09   8.5232285685695402e-09   8.9687739199271084e-09   8.8451699970739201e-09   9.1655085271880764e-09   9.0091165358837473e-09   9.1817073743027493e-09   9.0029408099596704e-09   9.0122996321698360e-09   8.8220799875833939e-09   8.6612498214241656e-09   8.4701080890231135e-09   8.1420456851969882e-09   7.9590923505043196e-09   7.4779904285828715e-09   7.3097523626449217e-09   6.7023045344787124e-09   6.5514392606038041e-09   5.8579111494216039e-09   5.7218912471907482e-09   4.9964320628147186e-09   4.8665264673589405e-09   4.0247427856672268e-09   4.0366786471214728e-09   4.8691566644748178e-09   3.2561207035523920e-09   4.0637238946580731e-09   4.1965368373801594e-09   3.3613004612339516e-09   3.4917311410137132e-09   2.7740008175536697e-09   2.9178377816112295e-09   2.3152436690300695e-09   2.4818188275881841e-09   1.9974281110613350e-09   2.1901320291916579e-09   1.8297327872895277e-09   2.0469853790477458e-09   1.8165151635417909e-09   2.0528442212359827e-09   1.9563619357811522e-09   2.2034532262455058e-09   2.2416988042434083e-09   2.4893828873353408e-09   2.6588548226228145e-09   2.8960238851558664e-09   3.1884952883118660e-09   3.4039444026948563e-09   3.8063543396695621e-09   3.9895371657123637e-09   4.4842080623985316e-09   4.6258938384865910e-09   5.1910328204668493e-09   5.2838505620755778e-09   5.8942944981042850e-09   5.9331511844919206e-09   6.5613143963281528e-09   6.5436760280246846e-09   7.1606578873167575e-09   7.0866852506364565e-09   7.6634932597114757e-09   7.5360277799676454e-09   8.0448708298243630e-09   7.8692698295499082e-09   8.2848765142686916e-09   8.0687013215237210e-09   8.3696197501448114e-09   8.1221841971297584e-09   8.2920229973272585e-09   8.0238136068924425e-09   8.0523891615353768e-09   7.7743713209520994e-09   7.6587340643259556e-09   7.3815602601001813e-09   7.1268825817102174e-09   6.8600192258784028e-09   6.4803354389583756e-09   6.2311256722766927e-09   5.7499083443867515e-09   5.5225962215115361e-09   4.9731047525796409e-09   4.7678777731054541e-09   4.1930811275804566e-09   4.0052682212657188e-09   3.4569109767412715e-09   3.2766049245970861e-09   2.7787917766566300e-09   2.6252615777900030e-09   3.1053281311496456e-09   1.9964626741988057e-09   2.4455076901250978e-09   2.5949991392959201e-09   1.9331638969207440e-09   2.0790854379193563e-09   1.5727420778595654e-09   1.7260851588245914e-09   1.3673360139103114e-09   1.5334337351386501e-09   1.3173501177707033e-09   1.4965231169068462e-09   1.4193009823155828e-09   1.6078108840727042e-09   1.6650336515422980e-09   1.8561250746685586e-09   2.0414110231429363e-09   2.2263288230862678e-09   2.5304313150846529e-09   2.6993681031166000e-09   3.1096996966157982e-09   3.2526562137401498e-09   3.7531803406359360e-09   3.8607281066240292e-09   4.4321617183064399e-09   4.4960974377416753e-09   5.1163735563659118e-09   5.1302541992517864e-09   5.7751975403773580e-09   5.7347456533190495e-09   6.3789164388319544e-09   6.2822872119294716e-09   6.8999488404296642e-09   6.7478534301047585e-09   7.3140198308463392e-09   7.1097030730182991e-09   7.6012220649239068e-09   7.3502967246555383e-09   7.7469269718858049e-09   7.4570708320979674e-09   7.7425122808934450e-09   7.4230384570773709e-09   7.5858795997703852e-09   7.2471942530422381e-09   7.2817442635337591e-09   6.9347091318565771e-09   6.8416887555948629e-09   6.4969084417547232e-09   6.2839798895811205e-09   5.9510357128710731e-09   5.6331567224170663e-09   5.3198110586024310e-09   4.9193968577965363e-09   4.6307970152822305e-09   4.1776565975735897e-09   3.9155812291326980e-09   3.4465478204064150e-09   3.2087699907209512e-09   2.7668636562378158e-09   2.5467566568453615e-09   2.1796326390152940e-09   1.9661950338023839e-09   1.7232537048100054e-09   1.5021110118980607e-09   1.7148270261476432e-09   1.0358652233761944e-09   1.2311145651916158e-09   1.3843333505603666e-09   9.2194880061703883e-10   1.0670157672614642e-09   7.8350364760825654e-10   9.2783130932713793e-10   8.0932694251692382e-10   9.5539600770880632e-10   9.8961353933863116e-10   1.1357445898727650e-09   1.3106716822200701e-09   1.4519837576225452e-09   1.7547246536842785e-09   1.8841396604120209e-09   2.3000761838774527e-09   2.4092818519042657e-09   2.9216022836706476e-09   3.0019305691534278e-09   3.5915069248580058e-09   3.6347075960935496e-09   4.2802740875505378e-09   4.2791720356057695e-09   4.9577510682518764e-09   4.9067786135357274e-09   5.5943019510559521e-09   5.4898987095249441e-09   6.1619742201329732e-09   6.0028488303041603e-09   6.6356256461746814e-09   6.4228762715361552e-09   6.9939631925115648e-09   6.7310570668878402e-09   7.2204510666747999e-09   6.9130671615970254e-09   7.3040513308533077e-09   6.9597942173560803e-09   7.2397676691251025e-09   6.8677645810104082e-09   7.0289708616141463e-09   6.6393676345037354e-09   6.6794930032525550e-09   6.2828677878575833e-09   6.2054861599328926e-09   5.8122024798896274e-09   5.6270493741139218e-09   5.2465722792928799e-09   4.9696346814381384e-09   4.6098358870578017e-09   4.2632463701897762e-09   3.9297275640299513e-09   3.5414456794019048e-09   3.2369159024119176e-09   2.8401632286887719e-09   2.5639194793876636e-09   2.1963047355975094e-09   1.9438863700661353e-09   1.6461225815276663e-09   1.4092341013404339e-09   1.2233435029712213e-09   9.9014546274037201e-10   9.0858117587825647e-10   7.1294378011825158e-10   7.3697310826129901e-10   3.9651960486337472e-10   4.4289530287688758e-10   5.8730318558333030e-10   3.3350231603894072e-10   4.6315516548073080e-10   3.9710244146176630e-10   5.1685734811419022e-10   6.1907188840985483e-10   7.2957641977520917e-10   9.8153579038224633e-10   1.0800817644299780e-09   1.4632743875188330e-09   1.5447455583017198e-09   2.0399177715554225e-09   2.0977380528089735e-09   2.6844282689458178e-09   2.7114455725427264e-09   3.3678283188305737e-09   3.3570975540166323e-09   4.0601137076261887e-09   4.0055603307824628e-09   4.7312877409419895e-09   4.6282421685364636e-09   5.3524538489525193e-09   5.1980511927238673e-09   5.8969083401368468e-09   5.6903504229216479e-09   6.3411801039673955e-09   6.0838591542331124e-09   6.6659697235031660e-09   6.3614560505822711e-09   6.8569467600361429e-09   6.5108460717787590e-09   6.9053709901152484e-09   6.5250606252985861e-09   6.8085110880812931e-09   6.4027680560099908e-09   6.5698425198487345e-09   6.1483796531852683e-09   6.1990150091546258e-09   5.7719445742976737e-09   5.7115885167832213e-09   5.2888351890301067e-09   5.1285447716106233e-09   4.7192319836890921e-09   4.4755883719526043e-09   4.0874238981589705e-09   3.7822564858447951e-09   3.4209452669815237e-09   3.0808582243156829e-09   2.7495738247403989e-09   2.4052631060649947e-09   2.1042150515448819e-09   1.7895532835026852e-09   1.5156965641802280e-09   1.2665502717680042e-09   1.0134937550851004e-09   8.6623300335207689e-10   6.2440830915844241e-10   6.1409293146251045e-10   3.7123121210700049e-10   3.5863921995966295e-10   2.7144745422596152e-10   1.7655128668192959e-10   7.5240172306821270e-11   7.0920931198286205e-11   1.9501625562832994e-10   1.4454981164388567e-10   2.4637439940060063e-10   3.7900077087891895e-10   4.6174486047004878e-10   7.5329240056731369e-10   8.1666625269918482e-10   1.2438512727484690e-09   1.2849678910732830e-09   1.8246944411306622e-09   1.8389751614155820e-09   2.4678596813244216e-09   2.4499003691304394e-09   3.1440614633285436e-09   3.0884127585960925e-09   3.8235245521829411e-09   3.7253580239734646e-09   4.4769355428310641e-09   4.3325811652257633e-09   5.0764506676101491e-09   4.8837992039850822e-09   5.5967012566761304e-09   5.3554698502511393e-09   6.0157435303073385e-09   5.7276059671869265e-09   6.3159057362703866e-09   5.9844916505754733e-09   6.4844926180532088e-09   6.1152628319180906e-09   6.5143147202171220e-09   6.1143230150699161e-09   6.4040180532398007e-09   5.9815728210653633e-09   6.1581980365460793e-09   5.7224402758711693e-09   5.7872902116785832e-09   5.3477070463916209e-09   5.3072386804282110e-09   4.8731338779558713e-09   4.7389512087848844e-09   4.3188960280362359e-09   4.1075570048898605e-09   3.7088462008411770e-09   3.4414888261383233e-09   3.0696280216576283e-09   2.7714148060074426e-09   2.4296671320150291e-09   2.1290469349464300e-09   1.8180693504724873e-09   1.5458528439179396e-09   1.2634561647524276e-09   1.0516971202412801e-09   7.9276785318242488e-10   6.7344154343643597e-10   4.3006546497571409e-10   4.3354582614051966e-10   1.9536737959978366e-10   3.4873479350866124e-10   1.0356705717671395e-10   7.3878627124885218e-11   1.6349510657928816e-10   8.8683603845018498e-12   4.7394694491056106e-11   7.8179706969545795e-11   1.7202367310801871e-10   3.0789882437011983e-10   3.7192389760716273e-10   6.7443313569854568e-10   7.1094379759434619e-10   1.1525178230983074e-09   1.1610632600406077e-09   1.7153315670726168e-09   1.6935648838063373e-09   2.3348275965294566e-09   2.2793345226320028e-09   2.9822700436201527e-09   2.8893268134491339e-09   3.6289403085925245e-09   3.4951693484515897e-09   4.2469619516980299e-09   4.0698658305714933e-09   4.8101861495435852e-09   4.5885502814023208e-09   5.2950803091265000e-09   5.0292419316500967e-09   5.6815670024689837e-09   5.3735526570549948e-09   5.9537669196703277e-09   5.6073040632716492e-09   6.10060698