<?xml version="1.0"?>
<VTKFile type="UnstructuredGrid"  version="0.1"  >
<UnstructuredGrid>
<Piece  NumberOfPoints="25" NumberOfCells="32">
<Points>
<DataArray  type="Float64"  NumberOfComponents="3"  format="ascii">0 0 0  0.25 0 0  0.5 0 0  0.75 0 0  1 0 0  0 0.25 0  0.25 0.25 0  0.5 0.25 0  0.75 0.25 0  1 0.25 0  0 0.5 0  0.25 0.5 0  0.5 0.5 0  0.75 0.5 0  1 0.5 0  0 0.75 0  0.25 0.75 0  0.5 0.75 0  0.75 0.75 0  1 0.75 0  0 1 0  0.25 1 0  0.5 1 0  0.75 1 0  1 1 0  </DataArray>
</Points>
<Cells>
<DataArray  type="UInt32"  Name="connectivity"  format="ascii">0 1 6  0 5 6  1 2 7  1 6 7  2 3 8  2 7 8  3 4 9  3 8 9  5 6 11  5 10 11  6 7 12  6 11 12  7 8 13  7 12 13  8 9 14  8 13 14  10 11 16  10 15 16  11 12 17  11 16 17  12 13 18  12 17 18  13 14 19  13 18 19  15 16 21  15 20 21  16 17 22  16 21 22  17 18 23  17 22 23  18 19 24  18 23 24  </DataArray>
<DataArray  type="UInt32"  Name="offsets"  format="ascii">3 6 9 12 15 18 21 24 27 30 33 36 39 42 45 48 51 54 57 60 63 66 69 72 75 78 81 84 87 90 93 96 </DataArray>
<DataArray  type="UInt8"  Name="types"  format="ascii">5 5 5 5 5 5 5 5 5 5 5 5 5 5 5 5 5 5 5 5 5 5 5 5 5 5 5 5 5 5 5 5 </DataArray>
</Cells>
<CellData  Scalars="f_34770"> 
<DataArray  type="Float64"  Name="f_34770"  format="ascii">4.1437233574520810e-02   1.4853591828109074e-02   1.5273479342619075e-02   7.7304721522122458e-03   1.0463740351882878e-02   1.1402758806809438e-02   3.6611652351681616e-02   2.0227966146228370e-02   3.2717053999161513e-02   1.3874368535426055e-04   3.8132969137485526e-02   1.7863481810412335e-02   1.9778095448809787e-02   3.5274402805578191e-02   1.6045792256116402e-02   1.7393391002218969e-02   1.6192053255083532e-02   1.9176878430424329e-02   3.2668805786050761e-02   1.8989168919083872e-02   1.6660794857751404e-02   3.6109098170692647e-02   2.6141479370524862e-05   3.4573151545241168e-02   2.1971175326751441e-02   3.6611652351681692e-02   9.0095478376982837e-03   9.0758633580980824e-03   6.7272371974939947e-03   1.2355254950114572e-02   1.7958681284955553e-02   3.9898577525173812e-02   </DataArray> 
</CellData> 
</Piece>
</UnstructuredGrid>
</VTKFile>