<?xml version="1.0"?>
<VTKFile type="UnstructuredGrid"  version="0.1"  >
<UnstructuredGrid>
<Piece  NumberOfPoints="1089" NumberOfCells="2048">
<Points>
<DataArray  type="Float64"  NumberOfComponents="3"  format="ascii">0 0 0  0.03125 0 0  0.0625 0 0  0.09375 0 0  0.125 0 0  0.15625 0 0  0.1875 0 0  0.21875 0 0  0.25 0 0  0.28125 0 0  0.3125 0 0  0.34375 0 0  0.375 0 0  0.40625 0 0  0.4375 0 0  0.46875 0 0  0.5 0 0  0.53125 0 0  0.5625 0 0  0.59375 0 0  0.625 0 0  0.65625 0 0  0.6875 0 0  0.71875 0 0  0.75 0 0  0.78125 0 0  0.8125 0 0  0.84375 0 0  0.875 0 0  0.90625 0 0  0.9375 0 0  0.96875 0 0  1 0 0  0 0.03125 0  0.03125 0.03125 0  0.0625 0.03125 0  0.09375 0.03125 0  0.125 0.03125 0  0.15625 0.03125 0  0.1875 0.03125 0  0.21875 0.03125 0  0.25 0.03125 0  0.28125 0.03125 0  0.3125 0.03125 0  0.34375 0.03125 0  0.375 0.03125 0  0.40625 0.03125 0  0.4375 0.03125 0  0.46875 0.03125 0  0.5 0.03125 0  0.53125 0.03125 0  0.5625 0.03125 0  0.59375 0.03125 0  0.625 0.03125 0  0.65625 0.03125 0  0.6875 0.03125 0  0.71875 0.03125 0  0.75 0.03125 0  0.78125 0.03125 0  0.8125 0.03125 0  0.84375 0.03125 0  0.875 0.03125 0  0.90625 0.03125 0  0.9375 0.03125 0  0.96875 0.03125 0  1 0.03125 0  0 0.0625 0  0.03125 0.0625 0  0.0625 0.0625 0  0.09375 0.0625 0  0.125 0.0625 0  0.15625 0.0625 0  0.1875 0.0625 0  0.21875 0.0625 0  0.25 0.0625 0  0.28125 0.0625 0  0.3125 0.0625 0  0.34375 0.0625 0  0.375 0.0625 0  0.40625 0.0625 0  0.4375 0.0625 0  0.46875 0.0625 0  0.5 0.0625 0  0.53125 0.0625 0  0.5625 0.0625 0  0.59375 0.0625 0  0.625 0.0625 0  0.65625 0.0625 0  0.6875 0.0625 0  0.71875 0.0625 0  0.75 0.0625 0  0.78125 0.0625 0  0.8125 0.0625 0  0.84375 0.0625 0  0.875 0.0625 0  0.90625 0.0625 0  0.9375 0.0625 0  0.96875 0.0625 0  1 0.0625 0  0 0.09375 0  0.03125 0.09375 0  0.0625 0.09375 0  0.09375 0.09375 0  0.125 0.09375 0  0.15625 0.09375 0  0.1875 0.09375 0  0.21875 0.09375 0  0.25 0.09375 0  0.28125 0.09375 0  0.3125 0.09375 0  0.34375 0.09375 0  0.375 0.09375 0  0.40625 0.09375 0  0.4375 0.09375 0  0.46875 0.09375 0  0.5 0.09375 0  0.53125 0.09375 0  0.5625 0.09375 0  0.59375 0.09375 0  0.625 0.09375 0  0.65625 0.09375 0  0.6875 0.09375 0  0.71875 0.09375 0  0.75 0.09375 0  0.78125 0.09375 0  0.8125 0.09375 0  0.84375 0.09375 0  0.875 0.09375 0  0.90625 0.09375 0  0.9375 0.09375 0  0.96875 0.09375 0  1 0.09375 0  0 0.125 0  0.03125 0.125 0  0.0625 0.125 0  0.09375 0.125 0  0.125 0.125 0  0.15625 0.125 0  0.1875 0.125 0  0.21875 0.125 0  0.25 0.125 0  0.28125 0.125 0  0.3125 0.125 0  0.34375 0.125 0  0.375 0.125 0  0.40625 0.125 0  0.4375 0.125 0  0.46875 0.125 0  0.5 0.125 0  0.53125 0.125 0  0.5625 0.125 0  0.59375 0.125 0  0.625 0.125 0  0.65625 0.125 0  0.6875 0.125 0  0.71875 0.125 0  0.75 0.125 0  0.78125 0.125 0  0.8125 0.125 0  0.84375 0.125 0  0.875 0.125 0  0.90625 0.125 0  0.9375 0.125 0  0.96875 0.125 0  1 0.125 0  0 0.15625 0  0.03125 0.15625 0  0.0625 0.15625 0  0.09375 0.15625 0  0.125 0.15625 0  0.15625 0.15625 0  0.1875 0.15625 0  0.21875 0.15625 0  0.25 0.15625 0  0.28125 0.15625 0  0.3125 0.15625 0  0.34375 0.15625 0  0.375 0.15625 0  0.40625 0.15625 0  0.4375 0.15625 0  0.46875 0.15625 0  0.5 0.15625 0  0.53125 0.15625 0  0.5625 0.15625 0  0.59375 0.15625 0  0.625 0.15625 0  0.65625 0.15625 0  0.6875 0.15625 0  0.71875 0.15625 0  0.75 0.15625 0  0.78125 0.15625 0  0.8125 0.15625 0  0.84375 0.15625 0  0.875 0.15625 0  0.90625 0.15625 0  0.9375 0.15625 0  0.96875 0.15625 0  1 0.15625 0  0 0.1875 0  0.03125 0.1875 0  0.0625 0.1875 0  0.09375 0.1875 0  0.125 0.1875 0  0.15625 0.1875 0  0.1875 0.1875 0  0.21875 0.1875 0  0.25 0.1875 0  0.28125 0.1875 0  0.3125 0.1875 0  0.34375 0.1875 0  0.375 0.1875 0  0.40625 0.1875 0  0.4375 0.1875 0  0.46875 0.1875 0  0.5 0.1875 0  0.53125 0.1875 0  0.5625 0.1875 0  0.59375 0.1875 0  0.625 0.1875 0  0.65625 0.1875 0  0.6875 0.1875 0  0.71875 0.1875 0  0.75 0.1875 0  0.78125 0.1875 0  0.8125 0.1875 0  0.84375 0.1875 0  0.875 0.1875 0  0.90625 0.1875 0  0.9375 0.1875 0  0.96875 0.1875 0  1 0.1875 0  0 0.21875 0  0.03125 0.21875 0  0.0625 0.21875 0  0.09375 0.21875 0  0.125 0.21875 0  0.15625 0.21875 0  0.1875 0.21875 0  0.21875 0.21875 0  0.25 0.21875 0  0.28125 0.21875 0  0.3125 0.21875 0  0.34375 0.21875 0  0.375 0.21875 0  0.40625 0.21875 0  0.4375 0.21875 0  0.46875 0.21875 0  0.5 0.21875 0  0.53125 0.21875 0  0.5625 0.21875 0  0.59375 0.21875 0  0.625 0.21875 0  0.65625 0.21875 0  0.6875 0.21875 0  0.71875 0.21875 0  0.75 0.21875 0  0.78125 0.21875 0  0.8125 0.21875 0  0.84375 0.21875 0  0.875 0.21875 0  0.90625 0.21875 0  0.9375 0.21875 0  0.96875 0.21875 0  1 0.21875 0  0 0.25 0  0.03125 0.25 0  0.0625 0.25 0  0.09375 0.25 0  0.125 0.25 0  0.15625 0.25 0  0.1875 0.25 0  0.21875 0.25 0  0.25 0.25 0  0.28125 0.25 0  0.3125 0.25 0  0.34375 0.25 0  0.375 0.25 0  0.40625 0.25 0  0.4375 0.25 0  0.46875 0.25 0  0.5 0.25 0  0.53125 0.25 0  0.5625 0.25 0  0.59375 0.25 0  0.625 0.25 0  0.65625 0.25 0  0.6875 0.25 0  0.71875 0.25 0  0.75 0.25 0  0.78125 0.25 0  0.8125 0.25 0  0.84375 0.25 0  0.875 0.25 0  0.90625 0.25 0  0.9375 0.25 0  0.96875 0.25 0  1 0.25 0  0 0.28125 0  0.03125 0.28125 0  0.0625 0.28125 0  0.09375 0.28125 0  0.125 0.28125 0  0.15625 0.28125 0  0.1875 0.28125 0  0.21875 0.28125 0  0.25 0.28125 0  0.28125 0.28125 0  0.3125 0.28125 0  0.34375 0.28125 0  0.375 0.28125 0  0.40625 0.28125 0  0.4375 0.28125 0  0.46875 0.28125 0  0.5 0.28125 0  0.53125 0.28125 0  0.5625 0.28125 0  0.59375 0.28125 0  0.625 0.28125 0  0.65625 0.28125 0  0.6875 0.28125 0  0.71875 0.28125 0  0.75 0.28125 0  0.78125 0.28125 0  0.8125 0.28125 0  0.84375 0.28125 0  0.875 0.28125 0  0.90625 0.28125 0  0.9375 0.28125 0  0.96875 0.28125 0  1 0.28125 0  0 0.3125 0  0.03125 0.3125 0  0.0625 0.3125 0  0.09375 0.3125 0  0.125 0.3125 0  0.15625 0.3125 0  0.1875 0.3125 0  0.21875 0.3125 0  0.25 0.3125 0  0.28125 0.3125 0  0.3125 0.3125 0  0.34375 0.3125 0  0.375 0.3125 0  0.40625 0.3125 0  0.4375 0.3125 0  0.46875 0.3125 0  0.5 0.3125 0  0.53125 0.3125 0  0.5625 0.3125 0  0.59375 0.3125 0  0.625 0.3125 0  0.65625 0.3125 0  0.6875 0.3125 0  0.71875 0.3125 0  0.75 0.3125 0  0.78125 0.3125 0  0.8125 0.3125 0  0.84375 0.3125 0  0.875 0.3125 0  0.90625 0.3125 0  0.9375 0.3125 0  0.96875 0.3125 0  1 0.3125 0  0 0.34375 0  0.03125 0.34375 0  0.0625 0.34375 0  0.09375 0.34375 0  0.125 0.34375 0  0.15625 0.34375 0  0.1875 0.34375 0  0.21875 0.34375 0  0.25 0.34375 0  0.28125 0.34375 0  0.3125 0.34375 0  0.34375 0.34375 0  0.375 0.34375 0  0.40625 0.34375 0  0.4375 0.34375 0  0.46875 0.34375 0  0.5 0.34375 0  0.53125 0.34375 0  0.5625 0.34375 0  0.59375 0.34375 0  0.625 0.34375 0  0.65625 0.34375 0  0.6875 0.34375 0  0.71875 0.34375 0  0.75 0.34375 0  0.78125 0.34375 0  0.8125 0.34375 0  0.84375 0.34375 0  0.875 0.34375 0  0.90625 0.34375 0  0.9375 0.34375 0  0.96875 0.34375 0  1 0.34375 0  0 0.375 0  0.03125 0.375 0  0.0625 0.375 0  0.09375 0.375 0  0.125 0.375 0  0.15625 0.375 0  0.1875 0.375 0  0.21875 0.375 0  0.25 0.375 0  0.28125 0.375 0  0.3125 0.375 0  0.34375 0.375 0  0.375 0.375 0  0.40625 0.375 0  0.4375 0.375 0  0.46875 0.375 0  0.5 0.375 0  0.53125 0.375 0  0.5625 0.375 0  0.59375 0.375 0  0.625 0.375 0  0.65625 0.375 0  0.6875 0.375 0  0.71875 0.375 0  0.75 0.375 0  0.78125 0.375 0  0.8125 0.375 0  0.84375 0.375 0  0.875 0.375 0  0.90625 0.375 0  0.9375 0.375 0  0.96875 0.375 0  1 0.375 0  0 0.40625 0  0.03125 0.40625 0  0.0625 0.40625 0  0.09375 0.40625 0  0.125 0.40625 0  0.15625 0.40625 0  0.1875 0.40625 0  0.21875 0.40625 0  0.25 0.40625 0  0.28125 0.40625 0  0.3125 0.40625 0  0.34375 0.40625 0  0.375 0.40625 0  0.40625 0.40625 0  0.4375 0.40625 0  0.46875 0.40625 0  0.5 0.40625 0  0.53125 0.40625 0  0.5625 0.40625 0  0.59375 0.40625 0  0.625 0.40625 0  0.65625 0.40625 0  0.6875 0.40625 0  0.71875 0.40625 0  0.75 0.40625 0  0.78125 0.40625 0  0.8125 0.40625 0  0.84375 0.40625 0  0.875 0.40625 0  0.90625 0.40625 0  0.9375 0.40625 0  0.96875 0.40625 0  1 0.40625 0  0 0.4375 0  0.03125 0.4375 0  0.0625 0.4375 0  0.09375 0.4375 0  0.125 0.4375 0  0.15625 0.4375 0  0.1875 0.4375 0  0.21875 0.4375 0  0.25 0.4375 0  0.28125 0.4375 0  0.3125 0.4375 0  0.34375 0.4375 0  0.375 0.4375 0  0.40625 0.4375 0  0.4375 0.4375 0  0.46875 0.4375 0  0.5 0.4375 0  0.53125 0.4375 0  0.5625 0.4375 0  0.59375 0.4375 0  0.625 0.4375 0  0.65625 0.4375 0  0.6875 0.4375 0  0.71875 0.4375 0  0.75 0.4375 0  0.78125 0.4375 0  0.8125 0.4375 0  0.84375 0.4375 0  0.875 0.4375 0  0.90625 0.4375 0  0.9375 0.4375 0  0.96875 0.4375 0  1 0.4375 0  0 0.46875 0  0.03125 0.46875 0  0.0625 0.46875 0  0.09375 0.46875 0  0.125 0.46875 0  0.15625 0.46875 0  0.1875 0.46875 0  0.21875 0.46875 0  0.25 0.46875 0  0.28125 0.46875 0  0.3125 0.46875 0  0.34375 0.46875 0  0.375 0.46875 0  0.40625 0.46875 0  0.4375 0.46875 0  0.46875 0.46875 0  0.5 0.46875 0  0.53125 0.46875 0  0.5625 0.46875 0  0.59375 0.46875 0  0.625 0.46875 0  0.65625 0.46875 0  0.6875 0.46875 0  0.71875 0.46875 0  0.75 0.46875 0  0.78125 0.46875 0  0.8125 0.46875 0  0.84375 0.46875 0  0.875 0.46875 0  0.90625 0.46875 0  0.9375 0.46875 0  0.96875 0.46875 0  1 0.46875 0  0 0.5 0  0.03125 0.5 0  0.0625 0.5 0  0.09375 0.5 0  0.125 0.5 0  0.15625 0.5 0  0.1875 0.5 0  0.21875 0.5 0  0.25 0.5 0  0.28125 0.5 0  0.3125 0.5 0  0.34375 0.5 0  0.375 0.5 0  0.40625 0.5 0  0.4375 0.5 0  0.46875 0.5 0  0.5 0.5 0  0.53125 0.5 0  0.5625 0.5 0  0.59375 0.5 0  0.625 0.5 0  0.65625 0.5 0  0.6875 0.5 0  0.71875 0.5 0  0.75 0.5 0  0.78125 0.5 0  0.8125 0.5 0  0.84375 0.5 0  0.875 0.5 0  0.90625 0.5 0  0.9375 0.5 0  0.96875 0.5 0  1 0.5 0  0 0.53125 0  0.03125 0.53125 0  0.0625 0.53125 0  0.09375 0.53125 0  0.125 0.53125 0  0.15625 0.53125 0  0.1875 0.53125 0  0.21875 0.53125 0  0.25 0.53125 0  0.28125 0.53125 0  0.3125 0.53125 0  0.34375 0.53125 0  0.375 0.53125 0  0.40625 0.53125 0  0.4375 0.53125 0  0.46875 0.53125 0  0.5 0.53125 0  0.53125 0.53125 0  0.5625 0.53125 0  0.59375 0.53125 0  0.625 0.53125 0  0.65625 0.53125 0  0.6875 0.53125 0  0.71875 0.53125 0  0.75 0.53125 0  0.78125 0.531
[...]
<CellData  Scalars="f_59201"> 
<DataArray  type="Float64"  Name="f_59201"  format="ascii">2.8827373266275189e-06   2.8562978484091490e-06   2.8276607227798095e-06   2.8016084194998779e-06   2.7195644406232218e-06   2.6943207249782620e-06   2.5626040914519145e-06   2.5386021878652129e-06   2.3628129606271356e-06   2.3404679713235571e-06   2.1278698754363199e-06   2.1075468435047973e-06   1.8668041028271837e-06   1.8487929903225842e-06   1.5896484616260795e-06   1.5741473426548072e-06   1.3070538864877560e-06   1.2941593181223207e-06   1.0298802158388409e-06   1.0195834879276716e-06   7.6877892058346862e-07   7.6096719072913738e-07   5.3378381340963881e-07   5.2824544849765874e-07   3.3392547540762394e-07   3.3035910162708747e-07   1.7688422450685367e-07   1.7491103976113754e-07   6.8694967031776554e-08   6.7873837702222574e-08   1.3515277827497500e-08   1.3360069324981658e-08   1.3465623057338294e-08   1.3464131646078443e-08   6.8547866407756105e-08   6.8181647824203607e-08   1.7664519055645444e-07   1.7540952962791388e-07   3.3360343694048053e-07   3.3102667685515920e-07   5.3339073836883564e-07   5.2905219075238331e-07   7.6832931121124646e-07   7.6187500088844895e-07   1.0293905025610017e-06   1.0205460692798473e-06   1.3065417596095633e-06   1.2951219568310390e-06   1.5891321967119029e-06   1.5750466240115674e-06   1.8663019558426146e-06   1.8495569893129297e-06   2.1273996422162038e-06   2.1080970656983118e-06   2.3623917970098487e-06   2.3407254686705464e-06   2.5622486429733618e-06   2.5385016373252113e-06   2.7192911786945530e-06   2.6938367696011908e-06   2.8274860677425315e-06   2.8007948556025809e-06   2.8826767018956539e-06   2.8553236197802900e-06   2.8568740192814839e-06   2.7757391778635802e-06   2.8038302784344632e-06   2.7231114647939997e-06   2.6991372740512883e-06   2.6203042945169479e-06   2.5468667147226354e-06   2.4713666821854407e-06   2.3529040790895060e-06   2.2820870711780081e-06   2.1247193613805329e-06   2.0597692327399929e-06   1.8710853147728507e-06   1.8129630154788265e-06   1.6017461295420397e-06   1.5511471580975873e-06   1.3270470279143519e-06   1.2843727533075722e-06   1.0575389637429256e-06   1.0228812062860375e-06   8.0357416189158264e-07   7.7671248576274468e-07   5.7490857695508997e-07   5.5531976963795455e-07   3.8032692266447270e-07   3.6720601030766994e-07   2.2730489942341069e-07   2.1959679677741381e-07   1.2172170798473748e-07   1.1816228502198781e-07   6.7633939102335410e-08   6.6798958077050744e-08   6.7119535391253083e-08   6.7479612931974405e-08   1.2019781202133042e-07   1.2017731844953380e-07   2.2482859255346965e-07   2.2286623206584572e-07   3.7699047287790905e-07   3.7159920294122368e-07   5.7083518508634087e-07   5.6065913574181418e-07   7.9891211252332489e-07   7.8277825820780371e-07   1.0524543246244407e-06   1.0294168456429552e-06   1.3217151687460846e-06   1.2910907262432658e-06   1.5963425822412894e-06   1.5577351433616848e-06   1.8657769659221387e-06   1.8190914021054109e-06   2.1196577600920652e-06   2.0651022746093889e-06   2.3482237991418656e-06   2.2863023924125379e-06   2.5426929576571925e-06   2.4741905580523409e-06   2.6956070487725904e-06   2.6215710560361980e-06   2.8011270433898013e-06   2.7228477093801168e-06   2.8552581098445401e-06   2.7742399570281821e-06   2.7773431805571063e-06   2.6438921690534817e-06   2.7288900918254789e-06   2.5948108709434371e-06   2.6320977896273953e-06   2.4999273411449413e-06   2.4907894401375206e-06   2.3630369182049857e-06   2.3104626489344499e-06   2.1894972541870142e-06   2.0980775807349212e-06   1.9860210437385555e-06   1.8618018979615388e-06   1.7604361734015232e-06   1.6107088916420527e-06   1.5214022650945746e-06   1.3544368448712127e-06   1.2780894597767323e-06   1.1028229755985525e-06   1.0398322295118454e-06   8.6552723809283876e-07   8.1577328712974688e-07   6.5166154723288557e-07   6.1451287211167611e-07   4.6943942184998096e-07   4.4377796418154584e-07   3.2585993512161361e-07   3.1012474560930318e-07   2.2643832133464885e-07   2.1868603950405624e-07   1.7499366666778163e-07   1.7297353820410211e-07   1.7350185115365980e-07   1.7474243422990997e-07   2.2201937032316993e-07   2.2392362314542282e-07   3.1868092799735273e-07   3.1862603127906929e-07   4.5977085162414434e-07   4.5520891770802621e-07   6.3986554435570022e-07   6.2842130798866574e-07   8.5204146569986861e-07   8.3160314407761837e-07   1.0881406400144962e-06   1.0569403943322254e-06   1.3390835454985976e-06   1.2957643795348270e-06   1.5952175514314602e-06   1.5388840629702938e-06   1.8466879577104102e-06   1.7769391544150942e-06   2.0838182295009821e-06   2.0007616925779559e-06   2.2974861963211952e-06   2.2017342756899858e-06   2.4794835063247031e-06   2.3721338818613907e-06   2.6228454708571911e-06   2.5054497477455685e-06   2.7221347830425179e-06   2.5966578795358413e-06   2.7736483228047793e-06   2.6424132499634212e-06   2.6469991196290102e-06   2.4657319985475405e-06   2.6055168536130010e-06   2.4215467318989411e-06   2.5208373507590692e-06   2.3377360391817763e-06   2.3963699350931164e-06   2.2177137838776533e-06   2.2369963694497730e-06   2.0662173367002510e-06   2.0488841206696604e-06   1.8891238096420621e-06   1.8392690651069369e-06   1.6932483470747069e-06   1.6161955995481134e-06   1.4861050474460988e-06   1.3882193616079866e-06   1.2756332338966084e-06   1.1640846838562269e-06   1.0699003291346504e-06   9.5239110582798244e-07   8.7679513395183352e-07   7.6126343743319388e-07   7.0372540000939810e-07   5.9803916037391052e-07   5.5733271969022983e-07   4.6898579765066114e-07   4.4323647713788084e-07   3.7905940285116256e-07   3.6581707535741001e-07   3.3171355281860633e-07   3.2804690562400078e-07   3.2876619059668367e-07   3.3137556728478265e-07   3.7032939878232460e-07   3.7567370406477268e-07   4.5480474725907120e-07   4.5923754605219027e-07   5.7894433297897925e-07   5.7885390352674602e-07   7.3797510545453797e-07   7.2992303335497785e-07   9.2578165144347207e-07   9.0663458532194645e-07   1.1351404042551479e-06   1.1021898387798406e-06   1.3579963619279612e-06   1.3090617748229320e-06   1.5857719647915956e-06   1.5192833241518460e-06   1.8096969154657239e-06   1.7247535201966971e-06   2.0211475075416908e-06   1.9175513723707119e-06   2.2119844112071348e-06   2.0902479954652731e-06   2.3748783868933882e-06   2.2362083194759881e-06   2.5036125479569490e-06   2.3498726488764830e-06   2.5933435449871362e-06   2.4270003539751540e-06   2.6407828011873996e-06   2.4648310533422331e-06   2.4707590552620232e-06   2.2480900219464075e-06   2.4383579559904651e-06   2.2099649883585885e-06   2.3695398211148139e-06   2.1399524765534723e-06   2.2671486476026545e-06   2.0409717864111104e-06   2.1352446549539868e-06   1.9169741098560835e-06   1.9789498283729593e-06   1.7727886204970571e-06   1.8042773554108433e-06   1.6139660964886550e-06   1.6179243077311395e-06   1.4465930218748142e-06   1.4270295428039080e-06   1.2770756120715591e-06   1.2389072567598739e-06   1.1119030515035078e-06   1.0607690333714179e-06   9.5740195369057127e-07   8.9944727547728833e-07   8.1949401902677657e-07   7.6113208008768698e-07   7.0346788113769026e-07   6.5113245697123593e-07   6.1377484652586016e-07   5.7367143173563089e-07   5.5385681953834075e-07   5.3172303173632260e-07   5.2601318276375721e-07   5.2689742245434673e-07   5.3131175985986898e-07   5.5937855753408533e-07   5.6954722682823973e-07   6.2791666637916821e-07   6.3924848651768237e-07   7.2987578899599072e-07   7.3773462869576724e-07   8.6133445416359325e-07   8.6121722966122127e-07   1.0172355711639485e-06   1.0049449792276137e-06   1.1915797647985213e-06   1.1633850496748087e-06   1.3776548370058521e-06   1.3304343468202657e-06   1.5682929062222483e-06   1.4996529310050909e-06   1.7561461796897096e-06   1.6645115978536387e-06   1.9339723355461424e-06   1.8186459598344873e-06   2.0949210406711509e-06   1.9561102765028337e-06   2.2328136060195483e-06   2.0716250646351168e-06   2.3424062784240072e-06   2.1608109774462623e-06   2.4196192675059804e-06   2.2203918145265429e-06   2.4616869678050903e-06   2.2483183484720983e-06   2.2553794489458406e-06   1.9993537619287659e-06   2.2338202924597958e-06   1.9682229739725076e-06   2.1839990252737195e-06   1.9142019039153987e-06   2.1080648985366751e-06   1.8396216973320873e-06   2.0090825397243210e-06   1.7475121296606053e-06   1.8909162393524929e-06   1.6414829114242147e-06   1.7581131803444215e-06   1.5256180925227822e-06   1.6157571144937600e-06   1.4043500496919162e-06   1.4692910718739052e-06   1.2823092708319989e-06   1.3243174135591852e-06   1.1641569061960805e-06   1.1863860989584330e-06   1.0544098512522156e-06   1.0607819579301889e-06   9.5726796177021157e-07   9.5232084891356368e-07   8.7645193239001517e-07   8.6516346573346565e-07   8.1505911931800526e-07   8.0265437280499198e-07   7.7544334036472911e-07   7.6719259480415303e-07   7.5912344409643723e-07   7.6013873262527997e-07   7.6672417128793584e-07   7.8176211160960089e-07   7.9795151693331629e-07   8.3122990606781043e-07   8.5160344518133274e-07   9.0663856425242932e-07   9.2561544009660197e-07   1.0050862357788378e-06   1.0171390365216566e-06   1.1227833485514454e-06   1.1226502261822162e-06   1.2551970775236097e-06   1.2380835479682076e-06   1.3972242915199925e-06   1.3589868398193604e-06   1.5433867715159391e-06   1.4806911658797904e-06   1.6880421839208699e-06   1.5984904613855699e-06   1.8256045402302277e-06   1.7078260440083327e-06   1.9507685570717041e-06   1.8044722042070041e-06   2.0587327380632999e-06   1.8847198526316174e-06   2.1454139375715658e-06   1.9455532686999329e-06   2.2076360579470054e-06   1.9848041261578763e-06   2.2432446522447872e-06   2.0012326261175775e-06   2.0091597960831050e-06   1.7291188613889971e-06   1.9997871521720556e-06   1.7056496708523851e-06   1.9713642519529145e-06   1.6691964178059013e-06   1.9252436068338817e-06   1.6214315274550028e-06   1.8633590460530400e-06   1.5643640579309123e-06   1.7881539242416316e-06   1.5002602062497546e-06   1.7025231535275008e-06   1.4315919741703869e-06   1.6097339096730872e-06   1.3609754211530043e-06   1.5133202466928771e-06   1.2910916601007665e-06   1.4169574709878207e-06   1.2245949882880148e-06   1.3243247476097937e-06   1.1640153010833073e-06   1.2389642190265319e-06   1.1116616449046095e-06   1.1641439646895672e-06   1.0695326476060826e-06   1.1027311020817537e-06   1.0392383919702163e-06   1.0570803732139862e-06   1.0219372584222563e-06   1.0289426485754777e-06   1.0182903451872075e-06   1.0193968585957248e-06   1.0284352249924309e-06   1.0288078946941901e-06   1.0519799762373840e-06   1.0568119991958368e-06   1.0880176163808886e-06   1.1023301008040909e-06   1.1351602708004371e-06   1.1636084834436455e-06   1.1915916534463489e-06   1.2382851502754646e-06   1.2551357530248626e-06   1.3234793267291008e-06   1.3233390633754313e-06   1.4159008206922369e-06   1.3935633430962088e-06   1.5119755291077101e-06   1.4630858355138161e-06   1.6079833610684993e-06   1.5292042384636358e-06   1.7002053040123913e-06   1.5893445568222374e-06   1.7850771438954562e-06   1.6411711596288787e-06   1.8593476770611522e-06   1.6826990963359075e-06   1.9202367317008577e-06   1.7124064901802217e-06   1.9655769130639530e-06   1.7293331218881118e-06   1.9938889597987482e-06   1.7331150042729930e-06   1.7415982957150019e-06   1.4478063606823006e-06   1.7452894027658778e-06   1.4323732215545040e-06   1.7398413776642131e-06   1.4143873575617884e-06   1.7257391625314473e-06   1.3948174888109630e-06   1.7036945913674938e-06   1.3745922739629379e-06   1.6746220156945812e-06   1.3545624414925667e-06   1.6396418915049455e-06   1.3355050809243613e-06   1.6000719597148348e-06   1.3181280504299031e-06   1.5573980844033147e-06   1.3030648850651763e-06   1.5132279008773355e-06   1.2908618567475548e-06   1.4692330134449765e-06   1.2819614429882120e-06   1.4270851948515603e-06   1.2766860518823351e-06   1.3883910876026229e-06   1.2752247225888740e-06   1.3546290161131282e-06   1.2776244661522301e-06   1.3270908301135439e-06   1.2837871146269081e-06   1.3068311690113229e-06   1.2934719826678840e-06   1.2946260863751543e-06   1.3063042447316175e-06   1.2909425434497280e-06   1.3217886321470750e-06   1.2959198378975104e-06   1.3393278190103777e-06   1.3093635698949864e-06   1.3582446760282708e-06   1.3307522724136508e-06   1.3778074255154120e-06   1.3592563728407471e-06   1.3972566422308870e-06   1.3937687539316780e-06   1.4158330443400135e-06   1.4329459101793259e-06   1.4328051596614504e-06   1.4752586416504401e-06   1.4474963140721497e-06   1.5190514933420168e-06   1.4593110679836820e-06   1.5626107898995585e-06   1.4677622816963403e-06   1.6042419679086373e-06   1.4725012679212020e-06   1.6423571432710978e-06   1.4733541725922202e-06   1.6755709740085581e-06   1.4703652783145150e-06   1.7027906019902168e-06   1.4638358153934344e-06   1.7232494774338605e-06   1.4543098971541530e-06   1.4630128884886687e-06   1.1662563709059450e-06   1.4801441514841227e-06   1.1589260163647366e-06   1.4983634033607431e-06   1.1595966128935004e-06   1.5172508290254606e-06   1.1685153790941379e-06   1.5362523987993199e-06   1.1855126481996550e-06   1.5547045427066435e-06   1.2100064088097913e-06   1.5718996605877885e-06   1.2410614211180345e-06   1.5871485023153817e-06   1.2774591095531871e-06   1.5998286114579751e-06   1.3177662342991600e-06   1.6094191477723025e-06   1.3604011896705076e-06   1.6155248650404762e-06   1.4036991310801690e-06   1.6178916570879385e-06   1.4459766188480641e-06   1.6164151776910728e-06   1.4855953691143876e-06   1.6111433257770579e-06   1.5210238019195023e-06   1.6022729987834042e-06   1.5508945479443001e-06   1.5901413924044375e-06   1.5740558825740566e-06   1.5752121666570416e-06   1.5896151143500253e-06   1.5580569247304837e-06   1.5969721865644130e-06   1.5393326068872113e-06   1.5958420972367289e-06   1.5197555542205297e-06   1.5862651638230946e-06   1.5000731326600832e-06   1.5686046298143826e-06   1.4810339297622151e-06   1.5435316204944439e-06   1.4633576684356464e-06   1.5119980115866531e-06   1.4477061696524049e-06   1.4751984075774619e-06   1.4346570138401981e-06   1.4345231941275115e-06   1.4246820860312480e-06   1.3915056079862067e-06   1.4181339873276825e-06   1.3477670006840661e-06   1.4152441798917553e-06   1.3049657982444681e-06   1.4161368665120083e-06   1.2647562755595564e-06   1.4208594786579540e-06   1.2287607062410465e-06   1.4294179446672969e-06   1.1985463865068814e-06   1.4417682669387422e-06   1.1755627628063441e-06   1.1841387911035938e-06   8.9531021576709784e-07   1.2145713354300453e-06   8.9583882921701788e-07   1.2562406407959575e-06   9.1463789014412150e-07   1.3078198446860577e-06   9.5124311997653150e-07   1.3674940273299870e-06   1.0044109314964384e-06   1.4330336386925480e-06   1.0721645113104062e-06   1.5019198986084754e-06   1.1519048379975223e-06   1.5714763550918658e-06   1.2405428632276240e-06   1.6389933279620589e-06   1.3346389567151171e-06   1.7018426845722940e-06   1.4305457040567498e-06   1.7575826419287021e-06   1.5245521549704186e-06   1.8040518739643625e-06   1.6130270210124024e-06   1.8394513836248281e-06   1.6925572939345586e-06   1.8624120963514052e-06   1.7600780403837786e-06   1.8720460634160570e-06   1.8129888839125779e-06   1.8679794542030579e-06   1.8492528660754699e-06   1.8503660523065732e-06   1.8674738897794056e-06   1.8198806511793310e-06   1.8669496981423735e-06   1.7776924946908486e-06   1.8476982548419426e-06   1.7254196713997808e-06   1.8104564066932936e-06   1.6650661115325488e-06   1.7566507786809497e-06   1.5989435326982374e-06   1.6883419419431843e-06   1.5295813343218619e-06   1.6081439893473599e-06   1.4596280769280472e-06   1.5191227574600273e-06   1.3917488545106333e-06   1.4246770821239897e-06   1.3285236472499869e-06   1.3284087218808796e-06   1.2723526598521827e-06   1.2339879542120091e-06   1.2253755306049646e-06   1.1450231819982442e-06   1.1894113215243573e-06   1.0649434234058273e-06   1.1659229379740809e-06   9.9689999355528983e-07   1.1559969638935064e-06   9.4368212417544733e-07   1.1602939225030348e-06   9.0760703066893451e-07   9.1571455567116407e-07   6.4539464177581901e-07   9.5879949440547753e-07   6.5323709008450839e-07   1.0228009924530665e-06   6.8894028827071439e-07   1.1055177436030827e-06   7.5136584736783021e-07   1.2039274494088183e-06   8.3826199164692360e-07   1.3143068032712450e-06   9.4634870882099656e-07   1.4324124299794184e-06   1.0714757460157190e-06   1.5536769332797340e-06   1.2088114846265296e-06   1.6734048097074183e-06   1.3530474466574521e-06   1.7869628829782668e-06   1.4986119124548372e-06   1.8899618688024638e-06   1.6398877127782976e-06   1.9784252392624377e-06   1.7714285971127036e-06   2.0489408654661111e-06   1.8881676596461528e-06   2.0987906519096501e-06   1.9856107973411618e-06   2.1260536365346186e-06   2.0600082183820357e-06   2.1296787296578769e-06   2.1084975620902222e-06   2.1095242775912961e-06   2.1292131319431324e-06   2.0663628481327099e-06   2.1213569796683340e-06   2.0018509510038480e-06   2.0852290199989918e-06   1.9184647513878226e-06   2.0222149239582813e-06   1.8194041499914282e-06   1.9347321655972615e-06   1.7084688459296976e-06   1.8261362268227376e-06   1.5899111465428035e-06   1.7005905569733077e-06   1.4682713439597911e-06   1.5629054200049260e-06   1.3482024740995869e-06   1.4183522517263267e-06   1.2342922616041022e-06   1.2724616224909877e-06   1.1308910531264376e-06   1.1308143640769593e-06   1.0419553794928753e-06   9.9883671616407967e-07   9.7091670082832189e-07   8.8161079209583450e-07   9.2058161227357949e-07   7.8370919660641981e-07   8.9305763167189990e-07   7.0905200083459074e-07   8.8966469071457018e-07   6.6075332986162022e-07   6.6807014236306470e-07   4.2612265567561307e-07   7.2267341652592604e-07   4.4045338411167097e-07   8.0703186302280141e-07   4.9118734758528537e-07   9.1813594101163716e-07   5.7657536718556038e-07   1.0518559080880361e-06   6.9346198104095918e-07   1.2031043633919156e-06   8.3740568251697712e-07   1.3660662330895476e-06   1.0028771636654316e-06   1.5344521350289925e-06   1.1834971102353448e-06   1.7017584843422154e-06   1.3722975574232610e-06   1.8615263843086682e-06   1.5619979272645964e-06   2.0075929432503334e-06   1.7452879621553842e-06   2.1343282201545305e-06   1.9151090700194680e-06   2.2368504760220352e-06   2.0649248168604213e-06   2.3112123981656723e-06   2.1889710196730868e-06   2.3545515497107159e-06   2.2824762188972638e-06   2.3651993819356716e-06   2.3418441888880462e-06   2.3427446010583330e-06   2.3647914742660941e-06   2.2880483786998820e-06   2.3504346117539667e-06   2.2032107280541261e-06   2.2993236099237794e-06   2.0914892428945976e-06   2.2134203196613019e-06   1.9571732352360203e-06   2.0960224503017265e-06   1.8054180461701174e-06   1.9516360940704028e-06   1.6420458986452506e-06   1.7858016525110937e-06   1.4733210914506320e-06   1.6048799712207952e-06   1.3057086102917725e-06   1.4158072673095341e-06   1.1456263856424270e-06   1.2258290822205788e-06   9.9920246429590264e-07   1.0422249996680611e-06   8.7204912269486842e-07   8.7203708859790398e-07   7.6906575325238674e-07   7.2181537655403144e-07   6.9427918535490601e-07   5.9739139107948133e-07   6.5071890030010867e-07   5.0368151332368274e-07   6.4029381184094207e-07   4.4449535268345269e-07   4.5073142188977082e-07   2.4592563279114774e-07   5.1527729054338398e-07   2.6567038224762530e-07   6.1723604570617993e-07   3.2898478284112363e-07   7.5288717655465018e-07   4.3359568471045437e-07   9.1713599319142901e-07   5.7558318748063777e-07   1.1037130888788672e-06   7.4953063484388340e-07   1.3054449900932267e-06   9.4875482971912776e-07   1.5145554617165865e-06   1.1655830980349822e-06   1.7229800586047529e-06   1.3916610993412861e-06   1.9226836405085262e-06   1.6182804868416305e-06   2.1059717510710542e-06   1.8367160785606687e-06   2.2657863539144021e-06   2.0385614904860721e-06   2.3959760877007459e-06   2.2160515712486131e-06   2.4915314558026747e-06   2.3623599265165073e-06   2.54877625