<?xml version="1.0"?>
<VTKFile type="UnstructuredGrid"  version="0.1"  >
<UnstructuredGrid>
<Piece  NumberOfPoints="81" NumberOfCells="128">
<Points>
<DataArray  type="Float64"  NumberOfComponents="3"  format="ascii">0 0 0  0.125 0 0  0.25 0 0  0.375 0 0  0.5 0 0  0.625 0 0  0.75 0 0  0.875 0 0  1 0 0  0 0.125 0  0.125 0.125 0  0.25 0.125 0  0.375 0.125 0  0.5 0.125 0  0.625 0.125 0  0.75 0.125 0  0.875 0.125 0  1 0.125 0  0 0.25 0  0.125 0.25 0  0.25 0.25 0  0.375 0.25 0  0.5 0.25 0  0.625 0.25 0  0.75 0.25 0  0.875 0.25 0  1 0.25 0  0 0.375 0  0.125 0.375 0  0.25 0.375 0  0.375 0.375 0  0.5 0.375 0  0.625 0.375 0  0.75 0.375 0  0.875 0.375 0  1 0.375 0  0 0.5 0  0.125 0.5 0  0.25 0.5 0  0.375 0.5 0  0.5 0.5 0  0.625 0.5 0  0.75 0.5 0  0.875 0.5 0  1 0.5 0  0 0.625 0  0.125 0.625 0  0.25 0.625 0  0.375 0.625 0  0.5 0.625 0  0.625 0.625 0  0.75 0.625 0  0.875 0.625 0  1 0.625 0  0 0.75 0  0.125 0.75 0  0.25 0.75 0  0.375 0.75 0  0.5 0.75 0  0.625 0.75 0  0.75 0.75 0  0.875 0.75 0  1 0.75 0  0 0.875 0  0.125 0.875 0  0.25 0.875 0  0.375 0.875 0  0.5 0.875 0  0.625 0.875 0  0.75 0.875 0  0.875 0.875 0  1 0.875 0  0 1 0  0.125 1 0  0.25 1 0  0.375 1 0  0.5 1 0  0.625 1 0  0.75 1 0  0.875 1 0  1 1 0  </DataArray>
</Points>
<Cells>
<DataArray  type="UInt32"  Name="connectivity"  format="ascii">0 1 10  0 9 10  1 2 11  1 10 11  2 3 12  2 11 12  3 4 13  3 12 13  4 5 14  4 13 14  5 6 15  5 14 15  6 7 16  6 15 16  7 8 17  7 16 17  9 10 19  9 18 19  10 11 20  10 19 20  11 12 21  11 20 21  12 13 22  12 21 22  13 14 23  13 22 23  14 15 24  14 23 24  15 16 25  15 24 25  16 17 26  16 25 26  18 19 28  18 27 28  19 20 29  19 28 29  20 21 30  20 29 30  21 22 31  21 30 31  22 23 32  22 31 32  23 24 33  23 32 33  24 25 34  24 33 34  25 26 35  25 34 35  27 28 37  27 36 37  28 29 38  28 37 38  29 30 39  29 38 39  30 31 40  30 39 40  31 32 41  31 40 41  32 33 42  32 41 42  33 34 43  33 42 43  34 35 44  34 43 44  36 37 46  36 45 46  37 38 47  37 46 47  38 39 48  38 47 48  39 40 49  39 48 49  40 41 50  40 49 50  41 42 51  41 50 51  42 43 52  42 51 52  43 44 53  43 52 53  45 46 55  45 54 55  46 47 56  46 55 56  47 48 57  47 56 57  48 49 58  48 57 58  49 50 59  49 58 59  50 51 60  50 59 60  51 52 61  51 60 61  52 53 62  52 61 62  54 55 64  54 63 64  55 56 65  55 64 65  56 57 66  56 65 66  57 58 67  57 66 67  58 59 68  58 67 68  59 60 69  59 68 69  60 61 70  60 69 70  61 62 71  61 70 71  63 64 73  63 72 73  64 65 74  64 73 74  65 66 75  65 74 75  66 67 76  66 75 76  67 68 77  67 76 77  68 69 78  68 77 78  69 70 79  69 78 79  70 71 80  70 79 80  </DataArray>
<DataArray  type="UInt32"  Name="offsets"  format="ascii">3 6 9 12 15 18 21 24 27 30 33 36 39 42 45 48 51 54 57 60 63 66 69 72 75 78 81 84 87 90 93 96 99 102 105 108 111 114 117 120 123 126 129 132 135 138 141 144 147 150 153 156 159 162 165 168 171 174 177 180 183 186 189 192 195 198 201 204 207 210 213 216 219 222 225 228 231 234 237 240 243 246 249 252 255 258 261 264 267 270 273 276 279 282 285 288 291 294 297 300 303 306 309 312 315 318 321 324 327 330 333 336 339 342 345 348 351 354 357 360 363 366 369 372 375 378 381 384 </DataArray>
<DataArray  type="UInt8"  Name="types"  format="ascii">5 5 5 5 5 5 5 5 5 5 5 5 5 5 5 5 5 5 5 5 5 5 5 5 5 5 5 5 5 5 5 5 5 5 5 5 5 5 5 5 5 5 5 5 5 5 5 5 5 5 5 5 5 5 5 5 5 5 5 5 5 5 5 5 5 5 5 5 5 5 5 5 5 5 5 5 5 5 5 5 5 5 5 5 5 5 5 5 5 5 5 5 5 5 5 5 5 5 5 5 5 5 5 5 5 5 5 5 5 5 5 5 5 5 5 5 5 5 5 5 5 5 5 5 5 5 5 5 </DataArray>
</Cells>
<CellData  Scalars="f_87497"> 
<DataArray  type="Float64"  Name="f_87497"  format="ascii">1.5513679944899916e-06   1.7448498090749007e-06   3.6447274572539023e-06   6.1533543802189499e-06   5.2024698572846454e-06   1.0581374852233132e-05   5.3883931814146342e-06   1.2727261923811899e-05   4.0948335955756844e-06   1.1340603589813162e-05   2.1290219395431551e-06   7.2388043018293320e-06   4.3365543691488732e-07   2.8573657802952349e-06   3.8597324683216167e-07   8.0583561978309436e-07   1.0220969976057928e-05   8.1123849392190259e-06   1.3914274034434931e-05   1.3547717808474507e-05   1.4340960240317038e-05   1.2799096132964806e-05   1.1859801197036002e-05   9.7096703463451017e-06   7.9037344247790473e-06   5.8454495740245119e-06   4.8086213218563958e-06   3.4597592763087308e-06   4.5172786628356122e-06   3.9501910132984082e-06   5.7073547056480083e-06   7.9508753134116640e-06   2.0406626216376816e-05   1.5773099941453279e-05   1.9124332697147526e-05   1.9840770335642348e-05   1.3047964864639651e-05   1.3077035278096400e-05   6.1139181211665216e-06   6.2044580850661888e-06   2.3026078584003659e-06   2.3901504341763641e-06   3.8238498921144416e-06   3.8730785169230887e-06   1.0420506449157224e-05   9.7734896887040211e-06   1.3340412519311687e-05   1.7760821634688400e-05   2.6833746132876504e-05   2.0454758369588282e-05   2.0541167950409353e-05   2.1559125503391210e-05   1.0664273501384006e-05   1.0624104646665960e-05   2.6067962843277876e-06   2.6074343205512247e-06   1.0266690160934933e-06   1.0265559958357447e-06   6.8072255689949768e-06   6.8490573518357557e-06   1.7627095985220581e-05   1.6676990223244189e-05   1.9412440277236784e-05   2.5727248490247892e-05   2.5745718536758909e-05   1.9411068743760455e-05   1.6677319101628306e-05   1.7647968615608649e-05   6.8485973836906151e-06   6.8054181554147886e-06   1.0264953856042084e-06   1.0266088707138356e-06   2.6077766885891313e-06   2.6071394336205459e-06   1.0625060269659235e-05   1.0663978699518595e-05   2.1534017493781981e-05   2.0537034612605896e-05   2.0458186486396695e-05   2.6816419262402616e-05   1.7773975391047473e-05   1.3338033898440092e-05   9.7725767535574808e-06   1.0433622150418509e-05   3.8726550230343389e-06   3.8233971966615904e-06   2.3903631487179224e-06   2.3041479900718829e-06   6.2043708570681115e-06   6.1150752966264083e-06   1.3074997454841383e-05   1.3045930358686514e-05   1.9816225861541382e-05   1.9113801207985043e-05   1.5779761934561792e-05   2.0397016359885036e-05   7.9501733164854277e-06   5.7059138890007536e-06   3.9491035836854275e-06   4.5148035261976084e-06   3.4602651518992009e-06   4.7931644616887494e-06   5.8461000318151104e-06   7.8818182338160477e-06   9.7078823684692590e-06   1.1835317387943521e-05   1.2791174768463543e-05   1.4317968252440757e-05   1.3528708938750329e-05   1.3894947531332607e-05   8.1215568424896454e-06   1.0222834785685894e-05   8.1380407498278406e-07   3.9535745752196484e-07   2.8511565868585185e-06   4.2814479655217331e-07   7.2229756607554707e-06   2.1306908764058585e-06   1.1318947940726541e-05   4.0950620453662497e-06   1.2705259349891777e-05   5.3888934628896416e-06   1.0565589960727472e-05   5.2040684628535001e-06   6.1490936453372392e-06   3.6481749797676444e-06   1.7502270240713002e-06   1.5565841292566351e-06   </DataArray> 
</CellData> 
</Piece>
</UnstructuredGrid>
</VTKFile>