<?xml version="1.0"?>
<VTKFile type="UnstructuredGrid"  version="0.1"  >
<UnstructuredGrid>
<Piece  NumberOfPoints="81" NumberOfCells="128">
<Points>
<DataArray  type="Float64"  NumberOfComponents="3"  format="ascii">0 0 0  0.125 0 0  0.25 0 0  0.375 0 0  0.5 0 0  0.625 0 0  0.75 0 0  0.875 0 0  1 0 0  0 0.125 0  0.125 0.125 0  0.25 0.125 0  0.375 0.125 0  0.5 0.125 0  0.625 0.125 0  0.75 0.125 0  0.875 0.125 0  1 0.125 0  0 0.25 0  0.125 0.25 0  0.25 0.25 0  0.375 0.25 0  0.5 0.25 0  0.625 0.25 0  0.75 0.25 0  0.875 0.25 0  1 0.25 0  0 0.375 0  0.125 0.375 0  0.25 0.375 0  0.375 0.375 0  0.5 0.375 0  0.625 0.375 0  0.75 0.375 0  0.875 0.375 0  1 0.375 0  0 0.5 0  0.125 0.5 0  0.25 0.5 0  0.375 0.5 0  0.5 0.5 0  0.625 0.5 0  0.75 0.5 0  0.875 0.5 0  1 0.5 0  0 0.625 0  0.125 0.625 0  0.25 0.625 0  0.375 0.625 0  0.5 0.625 0  0.625 0.625 0  0.75 0.625 0  0.875 0.625 0  1 0.625 0  0 0.75 0  0.125 0.75 0  0.25 0.75 0  0.375 0.75 0  0.5 0.75 0  0.625 0.75 0  0.75 0.75 0  0.875 0.75 0  1 0.75 0  0 0.875 0  0.125 0.875 0  0.25 0.875 0  0.375 0.875 0  0.5 0.875 0  0.625 0.875 0  0.75 0.875 0  0.875 0.875 0  1 0.875 0  0 1 0  0.125 1 0  0.25 1 0  0.375 1 0  0.5 1 0  0.625 1 0  0.75 1 0  0.875 1 0  1 1 0  </DataArray>
</Points>
<Cells>
<DataArray  type="UInt32"  Name="connectivity"  format="ascii">0 1 10  0 9 10  1 2 11  1 10 11  2 3 12  2 11 12  3 4 13  3 12 13  4 5 14  4 13 14  5 6 15  5 14 15  6 7 16  6 15 16  7 8 17  7 16 17  9 10 19  9 18 19  10 11 20  10 19 20  11 12 21  11 20 21  12 13 22  12 21 22  13 14 23  13 22 23  14 15 24  14 23 24  15 16 25  15 24 25  16 17 26  16 25 26  18 19 28  18 27 28  19 20 29  19 28 29  20 21 30  20 29 30  21 22 31  21 30 31  22 23 32  22 31 32  23 24 33  23 32 33  24 25 34  24 33 34  25 26 35  25 34 35  27 28 37  27 36 37  28 29 38  28 37 38  29 30 39  29 38 39  30 31 40  30 39 40  31 32 41  31 40 41  32 33 42  32 41 42  33 34 43  33 42 43  34 35 44  34 43 44  36 37 46  36 45 46  37 38 47  37 46 47  38 39 48  38 47 48  39 40 49  39 48 49  40 41 50  40 49 50  41 42 51  41 50 51  42 43 52  42 51 52  43 44 53  43 52 53  45 46 55  45 54 55  46 47 56  46 55 56  47 48 57  47 56 57  48 49 58  48 57 58  49 50 59  49 58 59  50 51 60  50 59 60  51 52 61  51 60 61  52 53 62  52 61 62  54 55 64  54 63 64  55 56 65  55 64 65  56 57 66  56 65 66  57 58 67  57 66 67  58 59 68  58 67 68  59 60 69  59 68 69  60 61 70  60 69 70  61 62 71  61 70 71  63 64 73  63 72 73  64 65 74  64 73 74  65 66 75  65 74 75  66 67 76  66 75 76  67 68 77  67 76 77  68 69 78  68 77 78  69 70 79  69 78 79  70 71 80  70 79 80  </DataArray>
<DataArray  type="UInt32"  Name="offsets"  format="ascii">3 6 9 12 15 18 21 24 27 30 33 36 39 42 45 48 51 54 57 60 63 66 69 72 75 78 81 84 87 90 93 96 99 102 105 108 111 114 117 120 123 126 129 132 135 138 141 144 147 150 153 156 159 162 165 168 171 174 177 180 183 186 189 192 195 198 201 204 207 210 213 216 219 222 225 228 231 234 237 240 243 246 249 252 255 258 261 264 267 270 273 276 279 282 285 288 291 294 297 300 303 306 309 312 315 318 321 324 327 330 333 336 339 342 345 348 351 354 357 360 363 366 369 372 375 378 381 384 </DataArray>
<DataArray  type="UInt8"  Name="types"  format="ascii">5 5 5 5 5 5 5 5 5 5 5 5 5 5 5 5 5 5 5 5 5 5 5 5 5 5 5 5 5 5 5 5 5 5 5 5 5 5 5 5 5 5 5 5 5 5 5 5 5 5 5 5 5 5 5 5 5 5 5 5 5 5 5 5 5 5 5 5 5 5 5 5 5 5 5 5 5 5 5 5 5 5 5 5 5 5 5 5 5 5 5 5 5 5 5 5 5 5 5 5 5 5 5 5 5 5 5 5 5 5 5 5 5 5 5 5 5 5 5 5 5 5 5 5 5 5 5 5 </DataArray>
</Cells>
<CellData  Scalars="f_47789"> 
<DataArray  type="Float64"  Name="f_47789"  format="ascii">2.7727416809852421e-05   2.9552692136326982e-05   6.0556409864313679e-05   9.2809083820940056e-05   8.4101414980823766e-05   1.5649744265165165e-04   8.5283505704748534e-05   1.8550957681070181e-04   6.3651249726796999e-05   1.6350798659177336e-04   3.1602423187094633e-05   1.0354968665092748e-04   7.9736700916055960e-06   4.0602602406904709e-05   7.1154096323615017e-06   1.3703424726045760e-05   1.5802816528749406e-04   1.2993056412467625e-04   2.0687717504061623e-04   2.0517478801047011e-04   2.1009202953560632e-04   2.0184276611630148e-04   1.6933542036354937e-04   1.5585496526698551e-04   1.0925377789884993e-04   9.5263826966301738e-05   6.5000305180793120e-05   5.5451229578998561e-05   6.5067792814686452e-05   6.0388662145227122e-05   8.2921669396405793e-05   1.1341255044275604e-04   3.1950447096558128e-04   2.5285453717628702e-04   3.0181622019482201e-04   3.0444832466122447e-04   2.0979905019218883e-04   2.0863460314102835e-04   1.0109838424976575e-04   9.8662563687611641e-05   3.9907985519578640e-05   3.8024125920129623e-05   6.2499756177912888e-05   6.1549915254262776e-05   1.6041179958000676e-04   1.5649923301911048e-04   2.0673096489775455e-04   2.7400564476081474e-04   4.1859291581549063e-04   3.2548698973670638e-04   3.2587050818060466e-04   3.3178737450022028e-04   1.6960549267910853e-04   1.7059089023753081e-04   4.1534739798064225e-05   4.1444708877213512e-05   1.6393478980003684e-05   1.6317890019578788e-05   1.0975479548469186e-04   1.0890946433447027e-04   2.7202070984896459e-04   2.6586762167578315e-04   3.0649273867432766e-04   3.9931278810768737e-04   3.9963026624652515e-04   3.0655671211821144e-04   2.6600940299664294e-04   2.7237565541903094e-04   1.0897696608953942e-04   1.0984098617969327e-04   1.6319434268903841e-05   1.6394982530911187e-05   4.1391996617029989e-05   4.1482008810052961e-05   1.7047883390720604e-04   1.6951699240823890e-04   3.3146839054168034e-04   3.2575659208548737e-04   3.2556563836717270e-04   4.1843481395428258e-04   2.7435351024700992e-04   2.0689059756550879e-04   1.5662511795300926e-04   1.6070429482382387e-04   6.1577906785935968e-05   6.2526735859408324e-05   3.7974966956742459e-05   3.9839090821127287e-05   9.8572486545768929e-05   1.0098399346474555e-04   2.0852108977897319e-04   2.0968512156286964e-04   3.0424384078539302e-04   3.0173638167978190e-04   2.5307104271639135e-04   3.1956037632530391e-04   1.1370345601823933e-04   8.3136895932020655e-05   6.0456973798463448e-05   6.5121758980765567e-05   5.5418931332200369e-05   6.4784295590812645e-05   9.5161765872735354e-05   1.0892292264402521e-04   1.5573476790581216e-04   1.6899854757329802e-04   2.0174312497599485e-04   2.0986177898623512e-04   2.0512341289636356e-04   2.0682484010338165e-04   1.3020744656199679e-04   1.5825673574542713e-04   1.3855206088581351e-05   7.2825752255083618e-06   4.0485471648724501e-05   7.9337618662698178e-06   1.0329882420653206e-04   3.1555292551234647e-05   1.6320195332449804e-04   6.3614694823259642e-05   1.8525390514014195e-04   8.5277296160084551e-05   1.5638048072242727e-04   8.4152621312517673e-05   9.2872965228772046e-05   6.0671203582982628e-05   2.9722830659198185e-05   2.7894866757871505e-05   </DataArray> 
</CellData> 
</Piece>
</UnstructuredGrid>
</VTKFile>