<?xml version="1.0"?>
<VTKFile type="UnstructuredGrid"  version="0.1"  >
<UnstructuredGrid>
<Piece  NumberOfPoints="25" NumberOfCells="32">
<Points>
<DataArray  type="Float64"  NumberOfComponents="3"  format="ascii">0 0 0  0.25 0 0  0.5 0 0  0.75 0 0  1 0 0  0 0.25 0  0.25 0.25 0  0.5 0.25 0  0.75 0.25 0  1 0.25 0  0 0.5 0  0.25 0.5 0  0.5 0.5 0  0.75 0.5 0  1 0.5 0  0 0.75 0  0.25 0.75 0  0.5 0.75 0  0.75 0.75 0  1 0.75 0  0 1 0  0.25 1 0  0.5 1 0  0.75 1 0  1 1 0  </DataArray>
</Points>
<Cells>
<DataArray  type="UInt32"  Name="connectivity"  format="ascii">0 1 6  0 5 6  1 2 7  1 6 7  2 3 8  2 7 8  3 4 9  3 8 9  5 6 11  5 10 11  6 7 12  6 11 12  7 8 13  7 12 13  8 9 14  8 13 14  10 11 16  10 15 16  11 12 17  11 16 17  12 13 18  12 17 18  13 14 19  13 18 19  15 16 21  15 20 21  16 17 22  16 21 22  17 18 23  17 22 23  18 19 24  18 23 24  </DataArray>
<DataArray  type="UInt32"  Name="offsets"  format="ascii">3 6 9 12 15 18 21 24 27 30 33 36 39 42 45 48 51 54 57 60 63 66 69 72 75 78 81 84 87 90 93 96 </DataArray>
<DataArray  type="UInt8"  Name="types"  format="ascii">5 5 5 5 5 5 5 5 5 5 5 5 5 5 5 5 5 5 5 5 5 5 5 5 5 5 5 5 5 5 5 5 </DataArray>
</Cells>
<CellData  Scalars="f_34764"> 
<DataArray  type="Float64"  Name="f_34764"  format="ascii">1.4498455530810210e-03   1.4657729354427068e-03   2.0728461108328100e-04   1.1306713062895733e-03   6.3034099157234578e-04   1.7722236970734643e-03   5.8169553782117282e-04   9.9099336178677059e-04   6.5723049059399010e-04   3.5512032625719346e-04   1.3218590560948190e-03   7.7452467727880320e-04   1.2475936142309996e-03   2.2574251236015498e-04   3.9491430521555401e-04   2.9343455020535304e-04   1.4079898539864745e-03   7.1727385377437166e-04   2.6276042624234026e-04   8.7573848611956500e-04   4.5156095288218342e-04   8.7250215471585486e-04   4.9943213925826460e-04   8.5769310708188554e-04   7.1329712278011128e-06   6.4994564819953952e-06   4.6470025822893099e-04   6.5811939508339789e-05   7.2692986923350935e-04   5.3197883476307288e-05   2.6795838229830683e-04   1.2533735266903704e-04   </DataArray> 
</CellData> 
</Piece>
</UnstructuredGrid>
</VTKFile>