<?xml version="1.0"?>
<VTKFile type="UnstructuredGrid"  version="0.1"  >
<UnstructuredGrid>
<Piece  NumberOfPoints="81" NumberOfCells="128">
<Points>
<DataArray  type="Float64"  NumberOfComponents="3"  format="ascii">0 0 0  0.125 0 0  0.25 0 0  0.375 0 0  0.5 0 0  0.625 0 0  0.75 0 0  0.875 0 0  1 0 0  0 0.125 0  0.125 0.125 0  0.25 0.125 0  0.375 0.125 0  0.5 0.125 0  0.625 0.125 0  0.75 0.125 0  0.875 0.125 0  1 0.125 0  0 0.25 0  0.125 0.25 0  0.25 0.25 0  0.375 0.25 0  0.5 0.25 0  0.625 0.25 0  0.75 0.25 0  0.875 0.25 0  1 0.25 0  0 0.375 0  0.125 0.375 0  0.25 0.375 0  0.375 0.375 0  0.5 0.375 0  0.625 0.375 0  0.75 0.375 0  0.875 0.375 0  1 0.375 0  0 0.5 0  0.125 0.5 0  0.25 0.5 0  0.375 0.5 0  0.5 0.5 0  0.625 0.5 0  0.75 0.5 0  0.875 0.5 0  1 0.5 0  0 0.625 0  0.125 0.625 0  0.25 0.625 0  0.375 0.625 0  0.5 0.625 0  0.625 0.625 0  0.75 0.625 0  0.875 0.625 0  1 0.625 0  0 0.75 0  0.125 0.75 0  0.25 0.75 0  0.375 0.75 0  0.5 0.75 0  0.625 0.75 0  0.75 0.75 0  0.875 0.75 0  1 0.75 0  0 0.875 0  0.125 0.875 0  0.25 0.875 0  0.375 0.875 0  0.5 0.875 0  0.625 0.875 0  0.75 0.875 0  0.875 0.875 0  1 0.875 0  0 1 0  0.125 1 0  0.25 1 0  0.375 1 0  0.5 1 0  0.625 1 0  0.75 1 0  0.875 1 0  1 1 0  </DataArray>
</Points>
<Cells>
<DataArray  type="UInt32"  Name="connectivity"  format="ascii">0 1 10  0 9 10  1 2 11  1 10 11  2 3 12  2 11 12  3 4 13  3 12 13  4 5 14  4 13 14  5 6 15  5 14 15  6 7 16  6 15 16  7 8 17  7 16 17  9 10 19  9 18 19  10 11 20  10 19 20  11 12 21  11 20 21  12 13 22  12 21 22  13 14 23  13 22 23  14 15 24  14 23 24  15 16 25  15 24 25  16 17 26  16 25 26  18 19 28  18 27 28  19 20 29  19 28 29  20 21 30  20 29 30  21 22 31  21 30 31  22 23 32  22 31 32  23 24 33  23 32 33  24 25 34  24 33 34  25 26 35  25 34 35  27 28 37  27 36 37  28 29 38  28 37 38  29 30 39  29 38 39  30 31 40  30 39 40  31 32 41  31 40 41  32 33 42  32 41 42  33 34 43  33 42 43  34 35 44  34 43 44  36 37 46  36 45 46  37 38 47  37 46 47  38 39 48  38 47 48  39 40 49  39 48 49  40 41 50  40 49 50  41 42 51  41 50 51  42 43 52  42 51 52  43 44 53  43 52 53  45 46 55  45 54 55  46 47 56  46 55 56  47 48 57  47 56 57  48 49 58  48 57 58  49 50 59  49 58 59  50 51 60  50 59 60  51 52 61  51 60 61  52 53 62  52 61 62  54 55 64  54 63 64  55 56 65  55 64 65  56 57 66  56 65 66  57 58 67  57 66 67  58 59 68  58 67 68  59 60 69  59 68 69  60 61 70  60 69 70  61 62 71  61 70 71  63 64 73  63 72 73  64 65 74  64 73 74  65 66 75  65 74 75  66 67 76  66 75 76  67 68 77  67 76 77  68 69 78  68 77 78  69 70 79  69 78 79  70 71 80  70 79 80  </DataArray>
<DataArray  type="UInt32"  Name="offsets"  format="ascii">3 6 9 12 15 18 21 24 27 30 33 36 39 42 45 48 51 54 57 60 63 66 69 72 75 78 81 84 87 90 93 96 99 102 105 108 111 114 117 120 123 126 129 132 135 138 141 144 147 150 153 156 159 162 165 168 171 174 177 180 183 186 189 192 195 198 201 204 207 210 213 216 219 222 225 228 231 234 237 240 243 246 249 252 255 258 261 264 267 270 273 276 279 282 285 288 291 294 297 300 303 306 309 312 315 318 321 324 327 330 333 336 339 342 345 348 351 354 357 360 363 366 369 372 375 378 381 384 </DataArray>
<DataArray  type="UInt8"  Name="types"  format="ascii">5 5 5 5 5 5 5 5 5 5 5 5 5 5 5 5 5 5 5 5 5 5 5 5 5 5 5 5 5 5 5 5 5 5 5 5 5 5 5 5 5 5 5 5 5 5 5 5 5 5 5 5 5 5 5 5 5 5 5 5 5 5 5 5 5 5 5 5 5 5 5 5 5 5 5 5 5 5 5 5 5 5 5 5 5 5 5 5 5 5 5 5 5 5 5 5 5 5 5 5 5 5 5 5 5 5 5 5 5 5 5 5 5 5 5 5 5 5 5 5 5 5 5 5 5 5 5 5 </DataArray>
</Cells>
<CellData  Scalars="f_34854"> 
<DataArray  type="Float64"  Name="f_34854"  format="ascii">3.0375755009921123e-04   2.9492321877792313e-04   1.7693599146880809e-04   2.0491635219151960e-04   5.7549188106195084e-05   9.2870917597358743e-05   1.5647661144649500e-05   3.6763796436407215e-05   7.5893652873011390e-05   6.9579342739082049e-05   2.0314515142664470e-04   1.7218226545025778e-04   3.2273374388042505e-04   2.8443057078929730e-04   3.6062397413017926e-04   3.4107416953955023e-04   1.9098676842337403e-04   1.4852930831863896e-04   1.1190651417488200e-04   1.0215109664825050e-04   6.8737411551100398e-05   8.0784594379809901e-05   8.7497494315422585e-05   1.0624516650637243e-04   1.5724788395759710e-04   1.6350981637511011e-04   2.3706818215923510e-04   2.1905662908027306e-04   2.7960090377329315e-04   2.4032441158502736e-04   2.5694870541694974e-04   2.1523969211162576e-04   6.6075023067463690e-05   3.1241430257079992e-05   7.0456141454847718e-05   4.7528756514615366e-05   1.1955062955482307e-04   1.1287864130645149e-04   1.8540353431929218e-04   1.9383007364832806e-04   2.2940928010712207e-04   2.4292365741348902e-04   2.2571818331610784e-04   2.3139943221354509e-04   1.7612095192527861e-04   1.6601556334493585e-04   1.0701497374118258e-04   8.4947742160740387e-05   1.8112611535079742e-05   1.1763588814949681e-05   8.8337218841731132e-05   7.3876549862059553e-05   1.8591098133278523e-04   1.7124840967594506e-04   2.5417010792021298e-04   2.4887148641955541e-04   2.5310465845499174e-04   2.6144824206638718e-04   1.8332755801430550e-04   2.0159117318844044e-04   8.5695372718418600e-05   1.0435432692577829e-04   1.5098610667065074e-05   2.6021481622882808e-05   7.5661288357339708e-05   1.0158634702458328e-04   1.5511563899723685e-04   1.6575777429057091e-04   2.2886579100974081e-04   2.2163815188094041e-04   2.5358587369382483e-04   2.3909122769138610e-04   2.1478696333231427e-04   2.0822497570714156e-04   1.3522375333396340e-04   1.4710082587805371e-04   6.1812330226888976e-05   9.1484277828623938e-05   3.5747074836424474e-05   7.2979741220304122e-05   2.0507579107882198e-04   2.4823153199764295e-04   2.3168087584122632e-04   2.6909174870148151e-04   2.2324293750206043e-04   2.3440992813117376e-04   1.8398286285470339e-04   1.7019650316209276e-04   1.3690101940676326e-04   1.1442805673834544e-04   1.0962172806777833e-04   9.9860567014529956e-05   1.1855783337150634e-04   1.3506280974740045e-04   1.5701062412658040e-04   1.9848332824816455e-04   3.3038198001127979e-04   3.6524064340517177e-04   2.7312182827818798e-04   3.2244643361405666e-04   1.7235469174430064e-04   2.0178745730392415e-04   8.6138074501749124e-05   8.2416517340556779e-05   6.5029122150605281e-05   3.5163331650739412e-05   1.2152122970231620e-04   8.7982834840919077e-05   2.2289156052878644e-04   2.1017835059691946e-04   3.0774780967594899e-04   3.3001800001585256e-04   3.7856320745707105e-04   3.7412291424750909e-04   2.5583511344343617e-04   2.9631965803880955e-04   1.0619511362669121e-04   1.4236704917684263e-04   1.6932809819274386e-05   2.5396092272793795e-05   4.0450649763078575e-05   1.5036430257666041e-05   1.6311878680463527e-04   1.1755072828487526e-04   3.1360297880236523e-04   2.7286840814728626e-04   3.9869430862709887e-04   3.8917341057137332e-04   </DataArray> 
</CellData> 
</Piece>
</UnstructuredGrid>
</VTKFile>