<?xml version="1.0"?>
<VTKFile type="UnstructuredGrid"  version="0.1"  >
<UnstructuredGrid>
<Piece  NumberOfPoints="25" NumberOfCells="32">
<Points>
<DataArray  type="Float64"  NumberOfComponents="3"  format="ascii">0 0 0  0.25 0 0  0.5 0 0  0.75 0 0  1 0 0  0 0.25 0  0.25 0.25 0  0.5 0.25 0  0.75 0.25 0  1 0.25 0  0 0.5 0  0.25 0.5 0  0.5 0.5 0  0.75 0.5 0  1 0.5 0  0 0.75 0  0.25 0.75 0  0.5 0.75 0  0.75 0.75 0  1 0.75 0  0 1 0  0.25 1 0  0.5 1 0  0.75 1 0  1 1 0  </DataArray>
</Points>
<Cells>
<DataArray  type="UInt32"  Name="connectivity"  format="ascii">0 1 6  0 5 6  1 2 7  1 6 7  2 3 8  2 7 8  3 4 9  3 8 9  5 6 11  5 10 11  6 7 12  6 11 12  7 8 13  7 12 13  8 9 14  8 13 14  10 11 16  10 15 16  11 12 17  11 16 17  12 13 18  12 17 18  13 14 19  13 18 19  15 16 21  15 20 21  16 17 22  16 21 22  17 18 23  17 22 23  18 19 24  18 23 24  </DataArray>
<DataArray  type="UInt32"  Name="offsets"  format="ascii">3 6 9 12 15 18 21 24 27 30 33 36 39 42 45 48 51 54 57 60 63 66 69 72 75 78 81 84 87 90 93 96 </DataArray>
<DataArray  type="UInt8"  Name="types"  format="ascii">5 5 5 5 5 5 5 5 5 5 5 5 5 5 5 5 5 5 5 5 5 5 5 5 5 5 5 5 5 5 5 5 </DataArray>
</Cells>
<CellData  Scalars="f_42042"> 
<DataArray  type="Float64"  Name="f_42042"  format="ascii">1.2443942334423175e-04   1.4170503074109307e-04   1.3517415378803068e-04   2.9273194886029390e-04   2.6577014692429754e-05   1.8544288018249597e-04   3.6063997723340364e-05   7.3589408584597203e-05   6.2156006816331056e-04   4.7929741037717143e-04   2.8932369546696030e-04   2.6789139819073063e-04   1.4818026353068797e-04   1.1116475624658001e-04   4.0820429325847491e-04   5.7203928452902891e-04   5.7033702140994323e-04   4.0675213803339691e-04   1.1162056792110987e-04   1.4835919708820338e-04   2.6513298497252456e-04   2.8645113305608347e-04   4.8108698730054019e-04   6.2111182660060040e-04   7.5491038491775860e-05   3.8238858506380002e-05   1.8449446371479058e-04   2.5393352752379426e-05   2.9127848691320817e-04   1.3606486315520367e-04   1.4294133827285851e-04   1.2565381157689527e-04   </DataArray> 
</CellData> 
</Piece>
</UnstructuredGrid>
</VTKFile>