<?xml version="1.0"?>
<VTKFile type="UnstructuredGrid"  version="0.1"  >
<UnstructuredGrid>
<Piece  NumberOfPoints="81" NumberOfCells="128">
<Points>
<DataArray  type="Float64"  NumberOfComponents="3"  format="ascii">0 0 0  0.125 0 0  0.25 0 0  0.375 0 0  0.5 0 0  0.625 0 0  0.75 0 0  0.875 0 0  1 0 0  0 0.125 0  0.125 0.125 0  0.25 0.125 0  0.375 0.125 0  0.5 0.125 0  0.625 0.125 0  0.75 0.125 0  0.875 0.125 0  1 0.125 0  0 0.25 0  0.125 0.25 0  0.25 0.25 0  0.375 0.25 0  0.5 0.25 0  0.625 0.25 0  0.75 0.25 0  0.875 0.25 0  1 0.25 0  0 0.375 0  0.125 0.375 0  0.25 0.375 0  0.375 0.375 0  0.5 0.375 0  0.625 0.375 0  0.75 0.375 0  0.875 0.375 0  1 0.375 0  0 0.5 0  0.125 0.5 0  0.25 0.5 0  0.375 0.5 0  0.5 0.5 0  0.625 0.5 0  0.75 0.5 0  0.875 0.5 0  1 0.5 0  0 0.625 0  0.125 0.625 0  0.25 0.625 0  0.375 0.625 0  0.5 0.625 0  0.625 0.625 0  0.75 0.625 0  0.875 0.625 0  1 0.625 0  0 0.75 0  0.125 0.75 0  0.25 0.75 0  0.375 0.75 0  0.5 0.75 0  0.625 0.75 0  0.75 0.75 0  0.875 0.75 0  1 0.75 0  0 0.875 0  0.125 0.875 0  0.25 0.875 0  0.375 0.875 0  0.5 0.875 0  0.625 0.875 0  0.75 0.875 0  0.875 0.875 0  1 0.875 0  0 1 0  0.125 1 0  0.25 1 0  0.375 1 0  0.5 1 0  0.625 1 0  0.75 1 0  0.875 1 0  1 1 0  </DataArray>
</Points>
<Cells>
<DataArray  type="UInt32"  Name="connectivity"  format="ascii">0 1 10  0 9 10  1 2 11  1 10 11  2 3 12  2 11 12  3 4 13  3 12 13  4 5 14  4 13 14  5 6 15  5 14 15  6 7 16  6 15 16  7 8 17  7 16 17  9 10 19  9 18 19  10 11 20  10 19 20  11 12 21  11 20 21  12 13 22  12 21 22  13 14 23  13 22 23  14 15 24  14 23 24  15 16 25  15 24 25  16 17 26  16 25 26  18 19 28  18 27 28  19 20 29  19 28 29  20 21 30  20 29 30  21 22 31  21 30 31  22 23 32  22 31 32  23 24 33  23 32 33  24 25 34  24 33 34  25 26 35  25 34 35  27 28 37  27 36 37  28 29 38  28 37 38  29 30 39  29 38 39  30 31 40  30 39 40  31 32 41  31 40 41  32 33 42  32 41 42  33 34 43  33 42 43  34 35 44  34 43 44  36 37 46  36 45 46  37 38 47  37 46 47  38 39 48  38 47 48  39 40 49  39 48 49  40 41 50  40 49 50  41 42 51  41 50 51  42 43 52  42 51 52  43 44 53  43 52 53  45 46 55  45 54 55  46 47 56  46 55 56  47 48 57  47 56 57  48 49 58  48 57 58  49 50 59  49 58 59  50 51 60  50 59 60  51 52 61  51 60 61  52 53 62  52 61 62  54 55 64  54 63 64  55 56 65  55 64 65  56 57 66  56 65 66  57 58 67  57 66 67  58 59 68  58 67 68  59 60 69  59 68 69  60 61 70  60 69 70  61 62 71  61 70 71  63 64 73  63 72 73  64 65 74  64 73 74  65 66 75  65 74 75  66 67 76  66 75 76  67 68 77  67 76 77  68 69 78  68 77 78  69 70 79  69 78 79  70 71 80  70 79 80  </DataArray>
<DataArray  type="UInt32"  Name="offsets"  format="ascii">3 6 9 12 15 18 21 24 27 30 33 36 39 42 45 48 51 54 57 60 63 66 69 72 75 78 81 84 87 90 93 96 99 102 105 108 111 114 117 120 123 126 129 132 135 138 141 144 147 150 153 156 159 162 165 168 171 174 177 180 183 186 189 192 195 198 201 204 207 210 213 216 219 222 225 228 231 234 237 240 243 246 249 252 255 258 261 264 267 270 273 276 279 282 285 288 291 294 297 300 303 306 309 312 315 318 321 324 327 330 333 336 339 342 345 348 351 354 357 360 363 366 369 372 375 378 381 384 </DataArray>
<DataArray  type="UInt8"  Name="types"  format="ascii">5 5 5 5 5 5 5 5 5 5 5 5 5 5 5 5 5 5 5 5 5 5 5 5 5 5 5 5 5 5 5 5 5 5 5 5 5 5 5 5 5 5 5 5 5 5 5 5 5 5 5 5 5 5 5 5 5 5 5 5 5 5 5 5 5 5 5 5 5 5 5 5 5 5 5 5 5 5 5 5 5 5 5 5 5 5 5 5 5 5 5 5 5 5 5 5 5 5 5 5 5 5 5 5 5 5 5 5 5 5 5 5 5 5 5 5 5 5 5 5 5 5 5 5 5 5 5 5 </DataArray>
</Cells>
<CellData  Scalars="f_47748"> 
<DataArray  type="Float64"  Name="f_47748"  format="ascii">8.0147594374527298e-06   1.2409944974239352e-05   2.4303563625204310e-05   1.8539127369998310e-05   4.2348290933194401e-05   3.1799883180102590e-05   5.1576254376600312e-05   4.4481502686755397e-05   4.6580098647639758e-05   4.9157515204200378e-05   3.0284316161410576e-05   4.3089859149717671e-05   1.2238727751473935e-05   2.9832143028470718e-05   2.9367246918609642e-06   1.7176618495934626e-05   2.1442338163291466e-05   3.3078674265784290e-05   2.6624845149614431e-05   3.0071599192387958e-05   3.1778915788985680e-05   2.7550564467107142e-05   3.3804933139356695e-05   2.6932690994489660e-05   3.1512563204532794e-05   2.8577967109378912e-05   2.6246147151207813e-05   3.1522703208169904e-05   2.1114758193817874e-05   3.4038083183190833e-05   1.9066933758059609e-05   3.4748927907255847e-05   4.0118187732513167e-05   5.0689062028468430e-05   3.1535635439768114e-05   3.9651682412035195e-05   2.0445222274621206e-05   2.2900157975522371e-05   1.3208895813044771e-05   1.0096232785014636e-05   1.4068602033643408e-05   8.7326831905011560e-06   2.2524889765255906e-05   1.9607102364239430e-05   3.3643894791125319e-05   3.6348184027642725e-05   4.0942345697105208e-05   4.9296936120311148e-05   5.3105488990771811e-05   5.4920800715286023e-05   3.6087531581981696e-05   4.1575082151225412e-05   1.4833592390959168e-05   2.0436181073622888e-05   1.6390392201302246e-06   3.6873790556501545e-06   4.2362961097261357e-06   1.1237576970061053e-06   2.1106601877790009e-05   1.4246045670599537e-05   4.2382340686678015e-05   3.5368823749170070e-05   5.5739747338446996e-05   5.2266267261573669e-05   5.2800506210269926e-05   4.3291875313261301e-05   3.7619843408311256e-05   3.4712823953517396e-05   1.8231817546343410e-05   2.1604458786171067e-05   5.8607855940030128e-06   1.1463848572049933e-05   7.7558725832962946e-06   1.0211128291619772e-05   2.2807672001535862e-05   1.8579942089719823e-05   4.2208957820576623e-05   3.1671240569511891e-05   5.4786904286450259e-05   4.1918044525042555e-05   3.9383969822625330e-05   2.2613438407257043e-05   3.5235433368700393e-05   2.3086710580296280e-05   2.8648491424166962e-05   2.5725320658584404e-05   2.3400431133555234e-05   2.8873693159043777e-05   2.2565788022724258e-05   3.0672917535980469e-05   2.6632937606854053e-05   3.0069933820665806e-05   3.3224909625796519e-05   2.7421440683288757e-05   3.8640463733995258e-05   2.4315524733237618e-05   2.0714459247435977e-05   5.0043063137101118e-06   3.0327160038888560e-05   1.3526199217042628e-05   3.9980394840267070e-05   3.0402429938279946e-05   4.3985515530329898e-05   4.5732709158768372e-05   3.9994371378280305e-05   5.0534167251623034e-05   3.0345115840590042e-05   4.1993605234751547e-05   2.0692516952580489e-05   2.5112342420201209e-05   1.6756605172562050e-05   9.7706588411890666e-06   7.7444564986434355e-06   7.6393962086734749e-07   2.5866063097880774e-05   1.1579295351282164e-05   4.5742330028273953e-05   3.2891006780943639e-05   5.5715305064032877e-05   5.2262800144965295e-05   4.9943162445287357e-05   5.8344702325526277e-05   3.1807623984102143e-05   4.7572966257751997e-05   1.1932347995572300e-05   2.6256633082448329e-05   1.9561852469067861e-06   6.8826733485260224e-06   </DataArray> 
</CellData> 
</Piece>
</UnstructuredGrid>
</VTKFile>