<?xml version="1.0"?>
<VTKFile type="UnstructuredGrid"  version="0.1"  >
<UnstructuredGrid>
<Piece  NumberOfPoints="81" NumberOfCells="128">
<Points>
<DataArray  type="Float64"  NumberOfComponents="3"  format="ascii">0 0 0  0.125 0 0  0.25 0 0  0.375 0 0  0.5 0 0  0.625 0 0  0.75 0 0  0.875 0 0  1 0 0  0 0.125 0  0.125 0.125 0  0.25 0.125 0  0.375 0.125 0  0.5 0.125 0  0.625 0.125 0  0.75 0.125 0  0.875 0.125 0  1 0.125 0  0 0.25 0  0.125 0.25 0  0.25 0.25 0  0.375 0.25 0  0.5 0.25 0  0.625 0.25 0  0.75 0.25 0  0.875 0.25 0  1 0.25 0  0 0.375 0  0.125 0.375 0  0.25 0.375 0  0.375 0.375 0  0.5 0.375 0  0.625 0.375 0  0.75 0.375 0  0.875 0.375 0  1 0.375 0  0 0.5 0  0.125 0.5 0  0.25 0.5 0  0.375 0.5 0  0.5 0.5 0  0.625 0.5 0  0.75 0.5 0  0.875 0.5 0  1 0.5 0  0 0.625 0  0.125 0.625 0  0.25 0.625 0  0.375 0.625 0  0.5 0.625 0  0.625 0.625 0  0.75 0.625 0  0.875 0.625 0  1 0.625 0  0 0.75 0  0.125 0.75 0  0.25 0.75 0  0.375 0.75 0  0.5 0.75 0  0.625 0.75 0  0.75 0.75 0  0.875 0.75 0  1 0.75 0  0 0.875 0  0.125 0.875 0  0.25 0.875 0  0.375 0.875 0  0.5 0.875 0  0.625 0.875 0  0.75 0.875 0  0.875 0.875 0  1 0.875 0  0 1 0  0.125 1 0  0.25 1 0  0.375 1 0  0.5 1 0  0.625 1 0  0.75 1 0  0.875 1 0  1 1 0  </DataArray>
</Points>
<Cells>
<DataArray  type="UInt32"  Name="connectivity"  format="ascii">0 1 10  0 9 10  1 2 11  1 10 11  2 3 12  2 11 12  3 4 13  3 12 13  4 5 14  4 13 14  5 6 15  5 14 15  6 7 16  6 15 16  7 8 17  7 16 17  9 10 19  9 18 19  10 11 20  10 19 20  11 12 21  11 20 21  12 13 22  12 21 22  13 14 23  13 22 23  14 15 24  14 23 24  15 16 25  15 24 25  16 17 26  16 25 26  18 19 28  18 27 28  19 20 29  19 28 29  20 21 30  20 29 30  21 22 31  21 30 31  22 23 32  22 31 32  23 24 33  23 32 33  24 25 34  24 33 34  25 26 35  25 34 35  27 28 37  27 36 37  28 29 38  28 37 38  29 30 39  29 38 39  30 31 40  30 39 40  31 32 41  31 40 41  32 33 42  32 41 42  33 34 43  33 42 43  34 35 44  34 43 44  36 37 46  36 45 46  37 38 47  37 46 47  38 39 48  38 47 48  39 40 49  39 48 49  40 41 50  40 49 50  41 42 51  41 50 51  42 43 52  42 51 52  43 44 53  43 52 53  45 46 55  45 54 55  46 47 56  46 55 56  47 48 57  47 56 57  48 49 58  48 57 58  49 50 59  49 58 59  50 51 60  50 59 60  51 52 61  51 60 61  52 53 62  52 61 62  54 55 64  54 63 64  55 56 65  55 64 65  56 57 66  56 65 66  57 58 67  57 66 67  58 59 68  58 67 68  59 60 69  59 68 69  60 61 70  60 69 70  61 62 71  61 70 71  63 64 73  63 72 73  64 65 74  64 73 74  65 66 75  65 74 75  66 67 76  66 75 76  67 68 77  67 76 77  68 69 78  68 77 78  69 70 79  69 78 79  70 71 80  70 79 80  </DataArray>
<DataArray  type="UInt32"  Name="offsets"  format="ascii">3 6 9 12 15 18 21 24 27 30 33 36 39 42 45 48 51 54 57 60 63 66 69 72 75 78 81 84 87 90 93 96 99 102 105 108 111 114 117 120 123 126 129 132 135 138 141 144 147 150 153 156 159 162 165 168 171 174 177 180 183 186 189 192 195 198 201 204 207 210 213 216 219 222 225 228 231 234 237 240 243 246 249 252 255 258 261 264 267 270 273 276 279 282 285 288 291 294 297 300 303 306 309 312 315 318 321 324 327 330 333 336 339 342 345 348 351 354 357 360 363 366 369 372 375 378 381 384 </DataArray>
<DataArray  type="UInt8"  Name="types"  format="ascii">5 5 5 5 5 5 5 5 5 5 5 5 5 5 5 5 5 5 5 5 5 5 5 5 5 5 5 5 5 5 5 5 5 5 5 5 5 5 5 5 5 5 5 5 5 5 5 5 5 5 5 5 5 5 5 5 5 5 5 5 5 5 5 5 5 5 5 5 5 5 5 5 5 5 5 5 5 5 5 5 5 5 5 5 5 5 5 5 5 5 5 5 5 5 5 5 5 5 5 5 5 5 5 5 5 5 5 5 5 5 5 5 5 5 5 5 5 5 5 5 5 5 5 5 5 5 5 5 </DataArray>
</Cells>
<CellData  Scalars="f_37655"> 
<DataArray  type="Float64"  Name="f_37655"  format="ascii">6.6745472953931920e-04   5.6561302671237533e-04   4.9003900643260331e-04   4.1146938425181046e-04   2.3524577037894664e-04   1.9518902153039299e-04   5.2370881141829540e-05   4.4792724434865774e-05   4.8503064823113531e-05   4.8492520373286890e-05   2.2586722314099671e-04   2.0379409241804339e-04   4.8061565162956085e-04   4.1975100826555783e-04   6.6354704412101100e-04   5.7153692372718381e-04   5.9627872179111342e-04   3.3287851974317026e-04   5.1167654968752594e-04   2.7160284837054907e-04   3.5941736270932796e-04   2.1180628283899960e-04   2.3010712865937161e-04   1.9068390717944959e-04   1.9945371689904459e-04   2.2080527731221949e-04   2.8503045391040603e-04   2.8398488585870013e-04   4.3691755279031362e-04   3.4326065104556166e-04   5.6780950184210331e-04   3.6649478363910725e-04   4.0204701689433017e-04   9.8569130091762786e-05   4.7659383864774596e-04   1.4121119394780213e-04   5.0973579525359072e-04   2.6789089355548743e-04   4.8423773227885538e-04   4.0603487917486593e-04   4.1497473527893119e-04   4.7482079066505289e-04   3.4201637197981436e-04   4.3348545388237282e-04   3.0843173414027436e-04   3.0629788545532275e-04   3.3637381889006584e-04   1.6975097188543249e-04   1.9531672492561114e-04   8.4940571425586392e-09   4.0228337990089733e-04   9.6770488629057148e-05   5.9603338503715184e-04   3.3025183184114923e-04   6.6455936803810857e-04   5.6380082107800999e-04   5.6763993901144953e-04   6.6056903962258414e-04   3.6174155557315514e-04   5.6375478839835894e-04   1.6775213551152969e-04   3.3008216589761031e-04   1.0109445101542686e-04   9.6615756512875140e-05   9.6983359340719564e-05   9.5168189875230916e-05   3.3148496792863216e-04   1.6433318197235303e-04   5.6613096862376548e-04   3.6150984913878509e-04   6.6336164171309153e-04   5.6981372780112120e-04   5.6621860483559877e-04   6.6714978954462826e-04   3.3169986011029410e-04   5.9680878412912718e-04   9.7201372910984894e-05   3.9988926923869992e-04   5.1931208151420444e-08   1.8994296625715891e-04   1.6486899952161709e-04   3.2775914516443506e-04   3.0595025643277485e-04   3.0394174612325244e-04   4.3773525898614760e-04   3.4317193235676479e-04   4.8148838909984519e-04   4.2056978476434631e-04   4.1173711359213295e-04   4.9080885114462767e-04   2.6977430110698751e-04   5.1327626840641744e-04   1.3842967739824465e-04   4.7458047216509722e-04   9.2750827899552575e-05   3.9465202612043860e-04   3.5899744762709555e-04   5.6136977094774991e-04   3.4141569399997226e-04   4.3397626752651882e-04   2.8783508358053535e-04   2.8703198969097954e-04   2.2772103851506428e-04   2.0543350240253666e-04   1.9657137036626770e-04   2.3708506088541953e-04   2.1313939465365651e-04   3.6387165203942374e-04   2.6718792710972791e-04   5.1131543502361872e-04   3.2441445493610417e-04   5.9110888966841806e-04   5.6563880361362815e-04   6.6354704412101349e-04   4.1744980834801371e-04   4.8115726241036206e-04   2.0501796769894305e-04   2.2762464620086894e-04   5.1668919046865995e-05   5.1414724071254139e-05   4.7479389087010458e-05   5.5744496152281728e-05   1.9521309175158947e-04   2.3814586884980606e-04   4.0795503068879677e-04   4.9178666986388303e-04   5.5931750040105624e-04   6.6799708755361348e-04   </DataArray> 
</CellData> 
</Piece>
</UnstructuredGrid>
</VTKFile>