<?xml version="1.0"?>
<VTKFile type="UnstructuredGrid"  version="0.1"  >
<UnstructuredGrid>
<Piece  NumberOfPoints="25" NumberOfCells="32">
<Points>
<DataArray  type="Float64"  NumberOfComponents="3"  format="ascii">0 0 0  0.25 0 0  0.5 0 0  0.75 0 0  1 0 0  0 0.25 0  0.25 0.25 0  0.5 0.25 0  0.75 0.25 0  1 0.25 0  0 0.5 0  0.25 0.5 0  0.5 0.5 0  0.75 0.5 0  1 0.5 0  0 0.75 0  0.25 0.75 0  0.5 0.75 0  0.75 0.75 0  1 0.75 0  0 1 0  0.25 1 0  0.5 1 0  0.75 1 0  1 1 0  </DataArray>
</Points>
<Cells>
<DataArray  type="UInt32"  Name="connectivity"  format="ascii">0 1 6  0 5 6  1 2 7  1 6 7  2 3 8  2 7 8  3 4 9  3 8 9  5 6 11  5 10 11  6 7 12  6 11 12  7 8 13  7 12 13  8 9 14  8 13 14  10 11 16  10 15 16  11 12 17  11 16 17  12 13 18  12 17 18  13 14 19  13 18 19  15 16 21  15 20 21  16 17 22  16 21 22  17 18 23  17 22 23  18 19 24  18 23 24  </DataArray>
<DataArray  type="UInt32"  Name="offsets"  format="ascii">3 6 9 12 15 18 21 24 27 30 33 36 39 42 45 48 51 54 57 60 63 66 69 72 75 78 81 84 87 90 93 96 </DataArray>
<DataArray  type="UInt8"  Name="types"  format="ascii">5 5 5 5 5 5 5 5 5 5 5 5 5 5 5 5 5 5 5 5 5 5 5 5 5 5 5 5 5 5 5 5 </DataArray>
</Cells>
<CellData  Scalars="f_37518"> 
<DataArray  type="Float64"  Name="f_37518"  format="ascii">2.6690962220435981e-03   1.0667145047934591e-03   9.0047162065183864e-04   4.7891932450348974e-04   6.3419432469839895e-04   6.6009100295301350e-04   2.4018399495961771e-03   1.3852837465684576e-03   2.2389564813057872e-03   2.4882660400718216e-06   2.5149664888986277e-03   1.1728722858148168e-03   1.3031885292084640e-03   2.3048696161304780e-03   1.1631800079217386e-03   1.1316975541554855e-03   1.1115266815493522e-03   1.2165901409716803e-03   2.2602248778238543e-03   1.2896463285218486e-03   1.1525025895264384e-03   2.4804501334151916e-03   2.1899329988073174e-07   2.2703398146315962e-03   1.4162164624585295e-03   2.4018399495961819e-03   6.2118331135660150e-04   6.1171690753853336e-04   4.6269176734775754e-04   8.5266598439571193e-04   1.1194034043930810e-03   2.6436761520501071e-03   </DataArray> 
</CellData> 
</Piece>
</UnstructuredGrid>
</VTKFile>