<?xml version="1.0"?>
<VTKFile type="UnstructuredGrid"  version="0.1"  >
<UnstructuredGrid>
<Piece  NumberOfPoints="81" NumberOfCells="128">
<Points>
<DataArray  type="Float64"  NumberOfComponents="3"  format="ascii">0 0 0  0.125 0 0  0.25 0 0  0.375 0 0  0.5 0 0  0.625 0 0  0.75 0 0  0.875 0 0  1 0 0  0 0.125 0  0.125 0.125 0  0.25 0.125 0  0.375 0.125 0  0.5 0.125 0  0.625 0.125 0  0.75 0.125 0  0.875 0.125 0  1 0.125 0  0 0.25 0  0.125 0.25 0  0.25 0.25 0  0.375 0.25 0  0.5 0.25 0  0.625 0.25 0  0.75 0.25 0  0.875 0.25 0  1 0.25 0  0 0.375 0  0.125 0.375 0  0.25 0.375 0  0.375 0.375 0  0.5 0.375 0  0.625 0.375 0  0.75 0.375 0  0.875 0.375 0  1 0.375 0  0 0.5 0  0.125 0.5 0  0.25 0.5 0  0.375 0.5 0  0.5 0.5 0  0.625 0.5 0  0.75 0.5 0  0.875 0.5 0  1 0.5 0  0 0.625 0  0.125 0.625 0  0.25 0.625 0  0.375 0.625 0  0.5 0.625 0  0.625 0.625 0  0.75 0.625 0  0.875 0.625 0  1 0.625 0  0 0.75 0  0.125 0.75 0  0.25 0.75 0  0.375 0.75 0  0.5 0.75 0  0.625 0.75 0  0.75 0.75 0  0.875 0.75 0  1 0.75 0  0 0.875 0  0.125 0.875 0  0.25 0.875 0  0.375 0.875 0  0.5 0.875 0  0.625 0.875 0  0.75 0.875 0  0.875 0.875 0  1 0.875 0  0 1 0  0.125 1 0  0.25 1 0  0.375 1 0  0.5 1 0  0.625 1 0  0.75 1 0  0.875 1 0  1 1 0  </DataArray>
</Points>
<Cells>
<DataArray  type="UInt32"  Name="connectivity"  format="ascii">0 1 10  0 9 10  1 2 11  1 10 11  2 3 12  2 11 12  3 4 13  3 12 13  4 5 14  4 13 14  5 6 15  5 14 15  6 7 16  6 15 16  7 8 17  7 16 17  9 10 19  9 18 19  10 11 20  10 19 20  11 12 21  11 20 21  12 13 22  12 21 22  13 14 23  13 22 23  14 15 24  14 23 24  15 16 25  15 24 25  16 17 26  16 25 26  18 19 28  18 27 28  19 20 29  19 28 29  20 21 30  20 29 30  21 22 31  21 30 31  22 23 32  22 31 32  23 24 33  23 32 33  24 25 34  24 33 34  25 26 35  25 34 35  27 28 37  27 36 37  28 29 38  28 37 38  29 30 39  29 38 39  30 31 40  30 39 40  31 32 41  31 40 41  32 33 42  32 41 42  33 34 43  33 42 43  34 35 44  34 43 44  36 37 46  36 45 46  37 38 47  37 46 47  38 39 48  38 47 48  39 40 49  39 48 49  40 41 50  40 49 50  41 42 51  41 50 51  42 43 52  42 51 52  43 44 53  43 52 53  45 46 55  45 54 55  46 47 56  46 55 56  47 48 57  47 56 57  48 49 58  48 57 58  49 50 59  49 58 59  50 51 60  50 59 60  51 52 61  51 60 61  52 53 62  52 61 62  54 55 64  54 63 64  55 56 65  55 64 65  56 57 66  56 65 66  57 58 67  57 66 67  58 59 68  58 67 68  59 60 69  59 68 69  60 61 70  60 69 70  61 62 71  61 70 71  63 64 73  63 72 73  64 65 74  64 73 74  65 66 75  65 74 75  66 67 76  66 75 76  67 68 77  67 76 77  68 69 78  68 77 78  69 70 79  69 78 79  70 71 80  70 79 80  </DataArray>
<DataArray  type="UInt32"  Name="offsets"  format="ascii">3 6 9 12 15 18 21 24 27 30 33 36 39 42 45 48 51 54 57 60 63 66 69 72 75 78 81 84 87 90 93 96 99 102 105 108 111 114 117 120 123 126 129 132 135 138 141 144 147 150 153 156 159 162 165 168 171 174 177 180 183 186 189 192 195 198 201 204 207 210 213 216 219 222 225 228 231 234 237 240 243 246 249 252 255 258 261 264 267 270 273 276 279 282 285 288 291 294 297 300 303 306 309 312 315 318 321 324 327 330 333 336 339 342 345 348 351 354 357 360 363 366 369 372 375 378 381 384 </DataArray>
<DataArray  type="UInt8"  Name="types"  format="ascii">5 5 5 5 5 5 5 5 5 5 5 5 5 5 5 5 5 5 5 5 5 5 5 5 5 5 5 5 5 5 5 5 5 5 5 5 5 5 5 5 5 5 5 5 5 5 5 5 5 5 5 5 5 5 5 5 5 5 5 5 5 5 5 5 5 5 5 5 5 5 5 5 5 5 5 5 5 5 5 5 5 5 5 5 5 5 5 5 5 5 5 5 5 5 5 5 5 5 5 5 5 5 5 5 5 5 5 5 5 5 5 5 5 5 5 5 5 5 5 5 5 5 5 5 5 5 5 5 </DataArray>
</Cells>
<CellData  Scalars="f_87459"> 
<DataArray  type="Float64"  Name="f_87459"  format="ascii">2.7612383053170362e-06   2.5397632365978764e-06   2.0005463625666871e-06   1.7880628783088935e-06   9.2044168573819993e-07   8.1115119552195594e-07   1.5372863446775230e-07   1.3094384502447028e-07   1.4966597924516449e-07   1.4732448637346629e-07   9.0992387425610460e-07   8.4747195210304647e-07   1.9914917870707148e-06   1.8461140003808853e-06   2.7567900879610653e-06   2.4418236141479482e-06   2.6625934292225134e-06   1.5455265421073305e-06   2.2446987756971625e-06   1.1367986527485010e-06   1.6023926866516216e-06   9.0816712941195609e-07   1.0645742141124011e-06   8.6066544809586644e-07   9.4729211568826319e-07   1.0344346190077522e-06   1.3155832257461905e-06   1.3241307603131440e-06   1.9820758721132633e-06   1.5856490153426013e-06   2.4316242711818057e-06   1.5016495852351591e-06   1.8350125585612458e-06   4.9724079626627312e-07   2.0374221370650762e-06   5.7393776696674000e-07   2.2064124882349485e-06   1.1487019742394292e-06   2.1234815106067497e-06   1.7715362005039223e-06   1.8446035239833174e-06   2.0955026323648356e-06   1.5302677911708170e-06   1.9267319814339655e-06   1.3916726071363122e-06   1.3798892332357017e-06   1.3403369978210286e-06   6.7080651253992983e-07   9.1388583746494573e-07   3.5608140891797396e-09   1.7266058153848500e-06   4.1713241463025487e-07   2.5931962216212082e-06   1.4424154957164956e-06   2.9108626500680000e-06   2.4683926922720993e-06   2.5016745548068738e-06   2.8990994705147020e-06   1.6045800751128753e-06   2.4797435122346248e-06   7.5856963112264516e-07   1.4579884742873174e-06   3.5608118257577917e-07   4.3287095936176134e-07   4.3295095028638446e-07   3.5474664230464182e-07   1.4579784607124875e-06   7.5893940633810618e-07   2.4796737958804883e-06   1.6045770340703370e-06   2.8990020887166014e-06   2.5016102455291687e-06   2.4683152219566079e-06   2.9107694108683523e-06   1.4423731707102357e-06   2.5931436603833474e-06   4.1720365264564744e-07   1.7268357309283311e-06   3.4327815524703971e-09   9.1254006647513680e-07   6.6948889737458356e-07   1.3377815224347526e-06   1.3803018198448593e-06   1.3924085947280183e-06   1.9266780323792438e-06   1.5302660941562852e-06   2.0953922652508536e-06   1.8445330447237523e-06   1.7714527868772940e-06   2.1233720729794778e-06   1.1486839320473501e-06   2.2063512935122588e-06   5.7436913830852648e-07   2.0375500371220961e-06   4.9580899321056497e-07   1.8330183207957570e-06   1.4988279393125638e-06   2.4271488337310047e-06   1.5858740822370779e-06   1.9827044175653436e-06   1.3234653209280848e-06   1.3150621306762128e-06   1.0337750581011608e-06   9.4664663558149018e-07   8.6021594724023800e-07   1.0638683262936801e-06   9.0808033483078374e-07   1.6016702298635791e-06   1.1371868001418698e-06   2.2437521778852046e-06   1.5433718603952638e-06   2.6610423746968296e-06   2.4376402213947630e-06   2.7567900879610704e-06   1.8473615502469238e-06   1.9917838317683457e-06   8.4789710552564413e-07   9.1027670813375729e-07   1.4780669103423896e-07   1.5011823214630733e-07   1.3128861734619541e-07   1.5418734664637522e-07   8.1112721880909498e-07   9.2082754859408617e-07   1.7873050351035819e-06   2.0007876920685527e-06   2.5379936654398399e-06   2.7613126832744002e-06   </DataArray> 
</CellData> 
</Piece>
</UnstructuredGrid>
</VTKFile>