<?xml version="1.0"?>
<VTKFile type="UnstructuredGrid"  version="0.1"  >
<UnstructuredGrid>
<Piece  NumberOfPoints="1089" NumberOfCells="2048">
<Points>
<DataArray  type="Float64"  NumberOfComponents="3"  format="ascii">0 0 0  0.03125 0 0  0.0625 0 0  0.09375 0 0  0.125 0 0  0.15625 0 0  0.1875 0 0  0.21875 0 0  0.25 0 0  0.28125 0 0  0.3125 0 0  0.34375 0 0  0.375 0 0  0.40625 0 0  0.4375 0 0  0.46875 0 0  0.5 0 0  0.53125 0 0  0.5625 0 0  0.59375 0 0  0.625 0 0  0.65625 0 0  0.6875 0 0  0.71875 0 0  0.75 0 0  0.78125 0 0  0.8125 0 0  0.84375 0 0  0.875 0 0  0.90625 0 0  0.9375 0 0  0.96875 0 0  1 0 0  0 0.03125 0  0.03125 0.03125 0  0.0625 0.03125 0  0.09375 0.03125 0  0.125 0.03125 0  0.15625 0.03125 0  0.1875 0.03125 0  0.21875 0.03125 0  0.25 0.03125 0  0.28125 0.03125 0  0.3125 0.03125 0  0.34375 0.03125 0  0.375 0.03125 0  0.40625 0.03125 0  0.4375 0.03125 0  0.46875 0.03125 0  0.5 0.03125 0  0.53125 0.03125 0  0.5625 0.03125 0  0.59375 0.03125 0  0.625 0.03125 0  0.65625 0.03125 0  0.6875 0.03125 0  0.71875 0.03125 0  0.75 0.03125 0  0.78125 0.03125 0  0.8125 0.03125 0  0.84375 0.03125 0  0.875 0.03125 0  0.90625 0.03125 0  0.9375 0.03125 0  0.96875 0.03125 0  1 0.03125 0  0 0.0625 0  0.03125 0.0625 0  0.0625 0.0625 0  0.09375 0.0625 0  0.125 0.0625 0  0.15625 0.0625 0  0.1875 0.0625 0  0.21875 0.0625 0  0.25 0.0625 0  0.28125 0.0625 0  0.3125 0.0625 0  0.34375 0.0625 0  0.375 0.0625 0  0.40625 0.0625 0  0.4375 0.0625 0  0.46875 0.0625 0  0.5 0.0625 0  0.53125 0.0625 0  0.5625 0.0625 0  0.59375 0.0625 0  0.625 0.0625 0  0.65625 0.0625 0  0.6875 0.0625 0  0.71875 0.0625 0  0.75 0.0625 0  0.78125 0.0625 0  0.8125 0.0625 0  0.84375 0.0625 0  0.875 0.0625 0  0.90625 0.0625 0  0.9375 0.0625 0  0.96875 0.0625 0  1 0.0625 0  0 0.09375 0  0.03125 0.09375 0  0.0625 0.09375 0  0.09375 0.09375 0  0.125 0.09375 0  0.15625 0.09375 0  0.1875 0.09375 0  0.21875 0.09375 0  0.25 0.09375 0  0.28125 0.09375 0  0.3125 0.09375 0  0.34375 0.09375 0  0.375 0.09375 0  0.40625 0.09375 0  0.4375 0.09375 0  0.46875 0.09375 0  0.5 0.09375 0  0.53125 0.09375 0  0.5625 0.09375 0  0.59375 0.09375 0  0.625 0.09375 0  0.65625 0.09375 0  0.6875 0.09375 0  0.71875 0.09375 0  0.75 0.09375 0  0.78125 0.09375 0  0.8125 0.09375 0  0.84375 0.09375 0  0.875 0.09375 0  0.90625 0.09375 0  0.9375 0.09375 0  0.96875 0.09375 0  1 0.09375 0  0 0.125 0  0.03125 0.125 0  0.0625 0.125 0  0.09375 0.125 0  0.125 0.125 0  0.15625 0.125 0  0.1875 0.125 0  0.21875 0.125 0  0.25 0.125 0  0.28125 0.125 0  0.3125 0.125 0  0.34375 0.125 0  0.375 0.125 0  0.40625 0.125 0  0.4375 0.125 0  0.46875 0.125 0  0.5 0.125 0  0.53125 0.125 0  0.5625 0.125 0  0.59375 0.125 0  0.625 0.125 0  0.65625 0.125 0  0.6875 0.125 0  0.71875 0.125 0  0.75 0.125 0  0.78125 0.125 0  0.8125 0.125 0  0.84375 0.125 0  0.875 0.125 0  0.90625 0.125 0  0.9375 0.125 0  0.96875 0.125 0  1 0.125 0  0 0.15625 0  0.03125 0.15625 0  0.0625 0.15625 0  0.09375 0.15625 0  0.125 0.15625 0  0.15625 0.15625 0  0.1875 0.15625 0  0.21875 0.15625 0  0.25 0.15625 0  0.28125 0.15625 0  0.3125 0.15625 0  0.34375 0.15625 0  0.375 0.15625 0  0.40625 0.15625 0  0.4375 0.15625 0  0.46875 0.15625 0  0.5 0.15625 0  0.53125 0.15625 0  0.5625 0.15625 0  0.59375 0.15625 0  0.625 0.15625 0  0.65625 0.15625 0  0.6875 0.15625 0  0.71875 0.15625 0  0.75 0.15625 0  0.78125 0.15625 0  0.8125 0.15625 0  0.84375 0.15625 0  0.875 0.15625 0  0.90625 0.15625 0  0.9375 0.15625 0  0.96875 0.15625 0  1 0.15625 0  0 0.1875 0  0.03125 0.1875 0  0.0625 0.1875 0  0.09375 0.1875 0  0.125 0.1875 0  0.15625 0.1875 0  0.1875 0.1875 0  0.21875 0.1875 0  0.25 0.1875 0  0.28125 0.1875 0  0.3125 0.1875 0  0.34375 0.1875 0  0.375 0.1875 0  0.40625 0.1875 0  0.4375 0.1875 0  0.46875 0.1875 0  0.5 0.1875 0  0.53125 0.1875 0  0.5625 0.1875 0  0.59375 0.1875 0  0.625 0.1875 0  0.65625 0.1875 0  0.6875 0.1875 0  0.71875 0.1875 0  0.75 0.1875 0  0.78125 0.1875 0  0.8125 0.1875 0  0.84375 0.1875 0  0.875 0.1875 0  0.90625 0.1875 0  0.9375 0.1875 0  0.96875 0.1875 0  1 0.1875 0  0 0.21875 0  0.03125 0.21875 0  0.0625 0.21875 0  0.09375 0.21875 0  0.125 0.21875 0  0.15625 0.21875 0  0.1875 0.21875 0  0.21875 0.21875 0  0.25 0.21875 0  0.28125 0.21875 0  0.3125 0.21875 0  0.34375 0.21875 0  0.375 0.21875 0  0.40625 0.21875 0  0.4375 0.21875 0  0.46875 0.21875 0  0.5 0.21875 0  0.53125 0.21875 0  0.5625 0.21875 0  0.59375 0.21875 0  0.625 0.21875 0  0.65625 0.21875 0  0.6875 0.21875 0  0.71875 0.21875 0  0.75 0.21875 0  0.78125 0.21875 0  0.8125 0.21875 0  0.84375 0.21875 0  0.875 0.21875 0  0.90625 0.21875 0  0.9375 0.21875 0  0.96875 0.21875 0  1 0.21875 0  0 0.25 0  0.03125 0.25 0  0.0625 0.25 0  0.09375 0.25 0  0.125 0.25 0  0.15625 0.25 0  0.1875 0.25 0  0.21875 0.25 0  0.25 0.25 0  0.28125 0.25 0  0.3125 0.25 0  0.34375 0.25 0  0.375 0.25 0  0.40625 0.25 0  0.4375 0.25 0  0.46875 0.25 0  0.5 0.25 0  0.53125 0.25 0  0.5625 0.25 0  0.59375 0.25 0  0.625 0.25 0  0.65625 0.25 0  0.6875 0.25 0  0.71875 0.25 0  0.75 0.25 0  0.78125 0.25 0  0.8125 0.25 0  0.84375 0.25 0  0.875 0.25 0  0.90625 0.25 0  0.9375 0.25 0  0.96875 0.25 0  1 0.25 0  0 0.28125 0  0.03125 0.28125 0  0.0625 0.28125 0  0.09375 0.28125 0  0.125 0.28125 0  0.15625 0.28125 0  0.1875 0.28125 0  0.21875 0.28125 0  0.25 0.28125 0  0.28125 0.28125 0  0.3125 0.28125 0  0.34375 0.28125 0  0.375 0.28125 0  0.40625 0.28125 0  0.4375 0.28125 0  0.46875 0.28125 0  0.5 0.28125 0  0.53125 0.28125 0  0.5625 0.28125 0  0.59375 0.28125 0  0.625 0.28125 0  0.65625 0.28125 0  0.6875 0.28125 0  0.71875 0.28125 0  0.75 0.28125 0  0.78125 0.28125 0  0.8125 0.28125 0  0.84375 0.28125 0  0.875 0.28125 0  0.90625 0.28125 0  0.9375 0.28125 0  0.96875 0.28125 0  1 0.28125 0  0 0.3125 0  0.03125 0.3125 0  0.0625 0.3125 0  0.09375 0.3125 0  0.125 0.3125 0  0.15625 0.3125 0  0.1875 0.3125 0  0.21875 0.3125 0  0.25 0.3125 0  0.28125 0.3125 0  0.3125 0.3125 0  0.34375 0.3125 0  0.375 0.3125 0  0.40625 0.3125 0  0.4375 0.3125 0  0.46875 0.3125 0  0.5 0.3125 0  0.53125 0.3125 0  0.5625 0.3125 0  0.59375 0.3125 0  0.625 0.3125 0  0.65625 0.3125 0  0.6875 0.3125 0  0.71875 0.3125 0  0.75 0.3125 0  0.78125 0.3125 0  0.8125 0.3125 0  0.84375 0.3125 0  0.875 0.3125 0  0.90625 0.3125 0  0.9375 0.3125 0  0.96875 0.3125 0  1 0.3125 0  0 0.34375 0  0.03125 0.34375 0  0.0625 0.34375 0  0.09375 0.34375 0  0.125 0.34375 0  0.15625 0.34375 0  0.1875 0.34375 0  0.21875 0.34375 0  0.25 0.34375 0  0.28125 0.34375 0  0.3125 0.34375 0  0.34375 0.34375 0  0.375 0.34375 0  0.40625 0.34375 0  0.4375 0.34375 0  0.46875 0.34375 0  0.5 0.34375 0  0.53125 0.34375 0  0.5625 0.34375 0  0.59375 0.34375 0  0.625 0.34375 0  0.65625 0.34375 0  0.6875 0.34375 0  0.71875 0.34375 0  0.75 0.34375 0  0.78125 0.34375 0  0.8125 0.34375 0  0.84375 0.34375 0  0.875 0.34375 0  0.90625 0.34375 0  0.9375 0.34375 0  0.96875 0.34375 0  1 0.34375 0  0 0.375 0  0.03125 0.375 0  0.0625 0.375 0  0.09375 0.375 0  0.125 0.375 0  0.15625 0.375 0  0.1875 0.375 0  0.21875 0.375 0  0.25 0.375 0  0.28125 0.375 0  0.3125 0.375 0  0.34375 0.375 0  0.375 0.375 0  0.40625 0.375 0  0.4375 0.375 0  0.46875 0.375 0  0.5 0.375 0  0.53125 0.375 0  0.5625 0.375 0  0.59375 0.375 0  0.625 0.375 0  0.65625 0.375 0  0.6875 0.375 0  0.71875 0.375 0  0.75 0.375 0  0.78125 0.375 0  0.8125 0.375 0  0.84375 0.375 0  0.875 0.375 0  0.90625 0.375 0  0.9375 0.375 0  0.96875 0.375 0  1 0.375 0  0 0.40625 0  0.03125 0.40625 0  0.0625 0.40625 0  0.09375 0.40625 0  0.125 0.40625 0  0.15625 0.40625 0  0.1875 0.40625 0  0.21875 0.40625 0  0.25 0.40625 0  0.28125 0.40625 0  0.3125 0.40625 0  0.34375 0.40625 0  0.375 0.40625 0  0.40625 0.40625 0  0.4375 0.40625 0  0.46875 0.40625 0  0.5 0.40625 0  0.53125 0.40625 0  0.5625 0.40625 0  0.59375 0.40625 0  0.625 0.40625 0  0.65625 0.40625 0  0.6875 0.40625 0  0.71875 0.40625 0  0.75 0.40625 0  0.78125 0.40625 0  0.8125 0.40625 0  0.84375 0.40625 0  0.875 0.40625 0  0.90625 0.40625 0  0.9375 0.40625 0  0.96875 0.40625 0  1 0.40625 0  0 0.4375 0  0.03125 0.4375 0  0.0625 0.4375 0  0.09375 0.4375 0  0.125 0.4375 0  0.15625 0.4375 0  0.1875 0.4375 0  0.21875 0.4375 0  0.25 0.4375 0  0.28125 0.4375 0  0.3125 0.4375 0  0.34375 0.4375 0  0.375 0.4375 0  0.40625 0.4375 0  0.4375 0.4375 0  0.46875 0.4375 0  0.5 0.4375 0  0.53125 0.4375 0  0.5625 0.4375 0  0.59375 0.4375 0  0.625 0.4375 0  0.65625 0.4375 0  0.6875 0.4375 0  0.71875 0.4375 0  0.75 0.4375 0  0.78125 0.4375 0  0.8125 0.4375 0  0.84375 0.4375 0  0.875 0.4375 0  0.90625 0.4375 0  0.9375 0.4375 0  0.96875 0.4375 0  1 0.4375 0  0 0.46875 0  0.03125 0.46875 0  0.0625 0.46875 0  0.09375 0.46875 0  0.125 0.46875 0  0.15625 0.46875 0  0.1875 0.46875 0  0.21875 0.46875 0  0.25 0.46875 0  0.28125 0.46875 0  0.3125 0.46875 0  0.34375 0.46875 0  0.375 0.46875 0  0.40625 0.46875 0  0.4375 0.46875 0  0.46875 0.46875 0  0.5 0.46875 0  0.53125 0.46875 0  0.5625 0.46875 0  0.59375 0.46875 0  0.625 0.46875 0  0.65625 0.46875 0  0.6875 0.46875 0  0.71875 0.46875 0  0.75 0.46875 0  0.78125 0.46875 0  0.8125 0.46875 0  0.84375 0.46875 0  0.875 0.46875 0  0.90625 0.46875 0  0.9375 0.46875 0  0.96875 0.46875 0  1 0.46875 0  0 0.5 0  0.03125 0.5 0  0.0625 0.5 0  0.09375 0.5 0  0.125 0.5 0  0.15625 0.5 0  0.1875 0.5 0  0.21875 0.5 0  0.25 0.5 0  0.28125 0.5 0  0.3125 0.5 0  0.34375 0.5 0  0.375 0.5 0  0.40625 0.5 0  0.4375 0.5 0  0.46875 0.5 0  0.5 0.5 0  0.53125 0.5 0  0.5625 0.5 0  0.59375 0.5 0  0.625 0.5 0  0.65625 0.5 0  0.6875 0.5 0  0.71875 0.5 0  0.75 0.5 0  0.78125 0.5 0  0.8125 0.5 0  0.84375 0.5 0  0.875 0.5 0  0.90625 0.5 0  0.9375 0.5 0  0.96875 0.5 0  1 0.5 0  0 0.53125 0  0.03125 0.53125 0  0.0625 0.53125 0  0.09375 0.53125 0  0.125 0.53125 0  0.15625 0.53125 0  0.1875 0.53125 0  0.21875 0.53125 0  0.25 0.53125 0  0.28125 0.53125 0  0.3125 0.53125 0  0.34375 0.53125 0  0.375 0.53125 0  0.40625 0.53125 0  0.4375 0.53125 0  0.46875 0.53125 0  0.5 0.53125 0  0.53125 0.53125 0  0.5625 0.53125 0  0.59375 0.53125 0  0.625 0.53125 0  0.65625 0.53125 0  0.6875 0.53125 0  0.71875 0.53125 0  0.75 0.53125 0  0.78125 0.531
[...]
<CellData  Scalars="f_132657"> 
<DataArray  type="Float64"  Name="f_132657"  format="ascii">1.8085606341115859e-07   1.7967368044230131e-07   1.7739576416820828e-07   1.7613468663542033e-07   1.7060657436894956e-07   1.6935507411556679e-07   1.6074944845670462e-07   1.5955311346132812e-07   1.4820318241844028e-07   1.4709003299736273e-07   1.3344991355751359e-07   1.3243964154064208e-07   1.1705659798716855e-07   1.1616330336596373e-07   9.9653220652835758e-08   9.8885984010892100e-08   8.1908583582225029e-08   8.1271464025355682e-08   6.4504603390953043e-08   6.3996591361252947e-08   4.8110105334096194e-08   4.7725197287543471e-08   3.3355120672459875e-08   3.3082563037354559e-08   2.0806674949401370e-08   2.0631383272940691e-08   1.0946997565449145e-08   1.0850139507225981e-08   4.1549900240070089e-09   4.1147113761344412e-09   6.9166500532664662e-10   6.8393142587736512e-10   6.9011583366799452e-10   6.8963819861600261e-10   4.1504018035199023e-09   4.1316097461451926e-09   1.0939545917482743e-08   1.0877572223331391e-08   2.0796645121314087e-08   2.0668283210966517e-08   3.3342896651075385e-08   3.3127494413856269e-08   4.8096155183313523e-08   4.7776410875115910e-08   6.4489461361351899e-08   6.4052091034667003e-08   8.1892829647356569e-08   8.1329080390251411e-08   9.9637458175911526e-08   9.8943446580936175e-08   1.1704143013974420e-07   1.1621828816250613e-07   1.3343591869523659e-07   1.3248971753496920e-07   1.4819088737938369e-07   1.4713223112730060e-07   1.6073929606646978e-07   1.5958209180495253e-07   1.7059888066522820e-07   1.6935602794515649e-07   1.7739070318371397e-07   1.7605651174793787e-07   1.8085413087376230e-07   1.7932803813234221e-07   1.7970687018711592e-07   1.7482288672938546e-07   1.7626836195436577e-07   1.7126173043720367e-07   1.6965178237871049e-07   1.6472648041270440e-07   1.6006882491133680e-07   1.5534604800631527e-07   1.4787215660083207e-07   1.4344397432946298e-07   1.3352530299118312e-07   1.2946671538401959e-07   1.1757795234480870e-07   1.1394821880008268e-07   1.0064242540927261e-07   9.7483917469623115e-08   8.3369367863808823e-08   8.0706240148603532e-08   6.6422505713316451e-08   6.4259845649721097e-08   5.0453065157485083e-08   4.8776717576404015e-08   3.6074723642743448e-08   3.4851840052360310e-08   2.3840019293116853e-08   2.3020321831388269e-08   1.4219114668696665e-08   1.3736828952675632e-08   7.5817277428105082e-09   7.3581110200674416e-09   4.1829234806748206e-09   4.1292910956782032e-09   4.1533117070483697e-09   4.1744456255282732e-09   7.4940278310143129e-09   7.4918362571486405e-09   1.4076689266672163e-08   1.3953976735193009e-08   2.3648329205198241e-08   2.3312532288410491e-08   3.5841118131294502e-08   3.5207863230247523e-08   5.0186499491254566e-08   4.9182846025233325e-08   6.6133196262803973e-08   6.4700440635036454e-08   8.3068396260641892e-08   8.1164328613526951e-08   1.0034130106218084e-07   9.7941826525301348e-08   1.1728812895698809e-07   1.1438818315934284e-07   1.3325759017110921e-07   1.2987127771990798e-07   1.4763576280885264e-07   1.4379555751979813e-07   1.5986900688923786e-07   1.5562339795747101e-07   1.6948225268269394e-07   1.6488934768213766e-07   1.7608414518216505e-07   1.7119163937181308e-07   1.7932479128755441e-07   1.7410155773550784e-07   1.7492047407752213e-07   1.6665960199048980e-07   1.7162228179627766e-07   1.6317902269576915e-07   1.6547080362192935e-07   1.5711256606597317e-07   1.5657854296389742e-07   1.4849343161953909e-07   1.4525004676228716e-07   1.3759522737242743e-07   1.3190972706711104e-07   1.2482038718459514e-07   1.1706707071461945e-07   1.1065523997258533e-07   1.0129154734106819e-07   9.5642855759703382e-08   8.5189119929019732e-08   8.0359783355811271e-08   6.9378499140780447e-08   6.5393227760007153e-08   5.4467236706088653e-08   5.1318301212576514e-08   4.1028340611294616e-08   3.8675872158261628e-08   2.9578243916179721e-08   2.7951766412773031e-08   2.0556955145288427e-08   1.9558093371263556e-08   1.4311147841074390e-08   1.3817407764945303e-08   1.1080837654913880e-08   1.0950313720211494e-08   1.0990158525073456e-08   1.1066986978898354e-08   1.4042592264290321e-08   1.4162940934971028e-08   2.0120834830914154e-08   2.0119199157655434e-08   2.8991304407946680e-08   2.8706867765211941e-08   4.0313118048868748e-08   3.9595931941837196e-08   5.3651191922603638e-08   5.2367938541864800e-08   6.8492961642588318e-08   6.6532077236052139e-08   8.4268079599725088e-08   8.1544041288983880e-08   1.0037032971245468e-07   9.6826938788300938e-08   1.1618090552900760e-07   1.1179343153901933e-07   1.3109210565350053e-07   1.2586816996477532e-07   1.4453031871379996e-07   1.3850932950738649e-07   1.5597651402346353e-07   1.4922708177691767e-07   1.6497977412003183e-07   1.5759298671436745e-07   1.7114859936629158e-07   1.6321927725532924e-07   1.7406237326354535e-07   1.6562960101059020e-07   1.6685110458072870e-07   1.5555230013611300e-07   1.6384970461204662e-07   1.5225578125204340e-07   1.5843079038310403e-07   1.4685967295970340e-07   1.5059986851776650e-07   1.3930344643431484e-07   1.4059996644844453e-07   1.2980175157836927e-07   1.2879904298902511e-07   1.1869857999337306e-07   1.1564604457275982e-07   1.0641478165898651e-07   1.0164516484203189e-07   9.3420817198122831e-08   8.7334088179499392e-08   8.0215596704626035e-08   7.3262668575130539e-08   6.7306461327097071e-08   5.9971619361710554e-08   5.5189457814152950e-08   4.7971685248312178e-08   4.4330214878900857e-08   3.7724001461392979e-08   3.5146033431997440e-08   2.9622368875281883e-08   2.7989845850541710e-08   2.3978119357783256e-08   2.3136651958322123e-08   2.1008151103917993e-08   2.0772950703280002e-08   2.0826593258420744e-08   2.0989573093033471e-08   2.3440420013473771e-08   2.3778191676156088e-08   2.8749182690973532e-08   2.9031640679045958e-08   3.6548870098139451e-08   3.6548034494828728e-08   4.6539748806747257e-08   4.6038526251699355e-08   5.8337882033188946e-08   5.7138408251199985e-08   7.1489884250598565e-08   6.9421127377729890e-08   8.5490343466946679e-08   8.2414675389455544e-08   9.9801236888590889e-08   9.5619717793457052e-08   1.1387257362318683e-07   1.0852873792016829e-07   1.2716338775933117e-07   1.2064535217411544e-07   1.3916193806024501e-07   1.3150262205781541e-07   1.4940299761474355e-07   1.4067795887132124e-07   1.5747631630992706e-07   1.4779743878455226e-07   1.6300565495901252e-07   1.5250397902160228e-07   1.6552219600753673e-07   1.5429446450779401e-07   1.5586366978883918e-07   1.4194472361117357e-07   1.5330947630492423e-07   1.3892797633427115e-07   1.4886165114248288e-07   1.3437770073063435e-07   1.4241944767527325e-07   1.2814489500944508e-07   1.3415435565957433e-07   1.2037849994115533e-07   1.2436292985913005e-07   1.1135190896485700e-07   1.1341568004211998e-07   1.0140515313052722e-07   1.0173173419668242e-07   9.0918624073940399e-08   8.9759669734586274e-08   8.0294811301871698e-08   7.7959441470755106e-08   6.9941842151983454e-08   6.6784482205066279e-08   6.0257531201793134e-08   5.6664218464411059e-08   5.1614022162122320e-08   4.7987552498511588e-08   4.4343468485340005e-08   4.1087913025398659e-08   3.8725264406234761e-08   3.6230440741236165e-08   3.4975306959556092e-08   3.3601798866159336e-08   3.3237699012675785e-08   3.3302999752554892e-08   3.3579211511200706e-08   3.5345523092113941e-08   3.5986717600495911e-08   3.9650874867843245e-08   4.0367697200417849e-08   4.6053603996884980e-08   4.6553792639572570e-08   5.4307660728976284e-08   5.4307278692396634e-08   6.4095852382703766e-08   6.3330198279972211e-08   7.5042032680200559e-08   7.3275812292230053e-08   8.6725554632157552e-08   8.3761921552155762e-08   9.8697424746040365e-08   9.4385540874848988e-08   1.1049751000027755e-07   1.0473832868654487e-07   1.2167202535143745e-07   1.1442204949050930e-07   1.3179019238170026e-07   1.2306296444641286e-07   1.4045772627125466e-07   1.3032260898407579e-07   1.4732007990696894e-07   1.3589687988618511e-07   1.5203039648184446e-07   1.3947425599689435e-07   1.5408993792362954e-07   1.4054504196252405e-07   1.4239743599919711e-07   1.2636495212508677e-07   1.4042338547002200e-07   1.2371221735788543e-07   1.3714795836078790e-07   1.2015094577569627e-07   1.3236857502601813e-07   1.1545174271932382e-07   1.2617792158351164e-07   1.0969349119544392e-07   1.1878895288841611e-07   1.0306950693683398e-07   1.1047885728991768e-07   9.5826737359110365e-08   1.0156516969049709e-07   8.8241469444212900e-08   9.2389950114282452e-08   8.0604651960982785e-08   8.3305661481689697e-08   7.3209613894209034e-08   7.4661364617003885e-08   6.6340497558656689e-08   6.6789236025146277e-08   6.0261261667893850e-08   5.9991785157912021e-08   5.5205517616781030e-08   5.4530224863768840e-08   5.1367547012137094e-08   5.0614432145406412e-08   4.8894834446362801e-08   4.8394882533194707e-08   4.7882399586768181e-08   4.7956867419774829e-08   4.8369145673593910e-08   4.9317216440851341e-08   5.0336364582857405e-08   5.2423650833050512e-08   5.3708455869286478e-08   5.7156792614531496e-08   5.8355832147428595e-08   6.3334752357013698e-08   6.4099899128971436e-08   7.0720119132422069e-08   7.0719918800441484e-08   7.9029083513596729e-08   7.7961491425706451e-08   8.7942340944286157e-08   8.5546328109709655e-08   9.7117347989178916e-08   9.3182929115315822e-08   1.0620142670241092e-07   1.0057772073949069e-07   1.1484508074533401e-07   1.0744607743861422e-07   1.2271449477800240e-07   1.1352223740150581e-07   1.2950074530116936e-07   1.1856552974114146e-07   1.3491776906215202e-07   1.2235423580780727e-07   1.3866047933157178e-07   1.2463533857847163e-07   1.4021793650946213e-07   1.2491280021915052e-07   1.2697512411070311e-07   1.0941330714883800e-07   1.2569123046532493e-07   1.0719443997639426e-07   1.2374456062222984e-07   1.0472745037348065e-07   1.2083844689438544e-07   1.0171340655772787e-07   1.1698242828477324e-07   9.8159391805622421e-08   1.1229686029623869e-07   9.4172213620195720e-08   1.0695430449812403e-07   8.9897030407265039e-08   1.0115807005638002e-07   8.5495970801546971e-08   9.5130370937569504e-08   8.1137587647909761e-08   8.9102703861887505e-08   7.6989215183371848e-08   8.3306665104605335e-08   7.3210227531988368e-08   7.7964975607775613e-08   6.9945832255166024e-08   7.3282902922740233e-08   6.7321469011479843e-08   6.9440368261350021e-08   6.5437983727348315e-08   6.6585031205083396e-08   6.4367751941550344e-08   6.4826615079503183e-08   6.4151897251097135e-08   6.4232690393566226e-08   6.4798710981478626e-08   6.4826078230655349e-08   6.6283333626284517e-08   6.6583973348341959e-08   6.8548710255631758e-08   6.9438820677770896e-08   7.1507783161580946e-08   7.3280911508851682e-08   7.5046837439406403e-08   7.7962599448189653e-08   7.9029870780117389e-08   8.3303973532050098e-08   8.3303818921669048e-08   8.9099768049607056e-08   8.7704433452347819e-08   9.5127233860970729e-08   9.2062576133280759e-08   1.0115463061113405e-07   9.6210648397891828e-08   1.0694986477488568e-07   9.9988753810922371e-08   1.1228836643295873e-07   1.0324975231371295e-07   1.1695769783136914e-07   1.0586068074056853e-07   1.2075034915455851e-07   1.0769158538636552e-07   1.2341358529039836e-07   1.0855862551448309e-07   1.2444220586727330e-07   1.0799917302897391e-07   1.1019103584969616e-07   9.1741768197511587e-08   1.0968040765123944e-07   9.0009743872010312e-08   1.0916782262111021e-07   8.8700294956622534e-08   1.0827357250589063e-07   8.7458335402529815e-08   1.0692282421248460e-07   8.6220119690477908e-08   1.0513787660407545e-07   8.5002824029417395e-08   1.0297937561433298e-07   8.3845015135820908e-08   1.0052815819802203e-07   8.2788989079551297e-08   9.7877864587338291e-08   8.1874743200293346e-08   9.5130194184690764e-08   8.1137253828331041e-08   9.2390694547195445e-08   8.0604816726387735e-08   8.9764626443168330e-08   8.0297876801690713e-08   8.7352898669640851e-08   8.0228220976463379e-08   8.5248185268935243e-08   8.0398519812745960e-08   8.3531363020023570e-08   8.0802223589868106e-08   8.2268403216372619e-08   8.1423813743401442e-08   8.1507836461282118e-08   8.2239399218278357e-08   8.1278887740951120e-08   8.3217634623713101e-08   8.1590353408820083e-08   8.4320924857810654e-08   8.2430263226465196e-08   8.5506869888661719e-08   8.3766340411412346e-08   8.6729894127483669e-08   8.5547241851280956e-08   8.7942997616863230e-08   8.7704530164609967e-08   8.9099561096098157e-08   9.0155299189022471e-08   9.0155133010496891e-08   9.2805341583377421e-08   9.1069119554779305e-08   9.5552695975981895e-08   9.1806272269253830e-08   9.8291278629874180e-08   9.2337757019794136e-08   1.0091384865710627e-07   9.2641145804933225e-08   1.0331185886956152e-07   9.2696958218420819e-08   1.0536337428996100e-07   9.2472858717198226e-08   1.0687654300815643e-07   9.1862205882524774e-08   1.0736963440190399e-07   9.0454280178840532e-08   9.2690723637331909e-08   7.4029657216595888e-08   9.3006545982370890e-08   7.2818626172514782e-08   9.3978256463207443e-08   7.2685491791248032e-08   9.5157201870467858e-08   7.3234484932808680e-08   9.6386150905885288e-08   7.4334700546129079e-08   9.7587644603248784e-08   7.5913995505202408e-08   9.8707422053993540e-08   7.7903633696023833e-08   9.9700306840738987e-08   8.0225006339147983e-08   1.0052757756908564e-07   8.2788333220654257e-08   1.0115729165282458e-07   8.5494953245891812e-08   1.0156520592037284e-07   8.8240808042981014e-08   1.0173562844359563e-07   9.0920360073030617e-08   1.0166200118810863e-07   9.3430627447340845e-08   1.0134714698811470e-07   9.5675136124882255e-08   1.0080315989928379e-07   9.7567626024866873e-08   1.0005094021559402e-07   9.9035365637390930e-08   9.9119391289410199e-08   1.0002194699071497e-07   9.8044308846922892e-08   1.0048945337498230e-07   9.6867005443596377e-08   1.0041991646906099e-07   9.5632722906568197e-08   9.9816006853326608e-08   9.4388893732964100e-08   9.8700931331056864e-08   9.3183318089477460e-08   9.7117540848100654e-08   9.2062325787912862e-08   9.5126682663785959e-08   9.1068991151559857e-08   9.2804857564187100e-08   9.0241458645571601e-08   9.0241262023674139e-08   8.9611401670553520e-08   8.7534288930926525e-08   8.9202511206032593e-08   8.4787464629706944e-08   8.9028448185579405e-08   8.2104371599363982e-08   8.9087963219937367e-08   7.9580426785852352e-08   8.9348422390544746e-08   7.7283017519222581e-08   8.9685049096852306e-08   7.5187765779350349e-08   8.9656431086971643e-08   7.2952373337953143e-08   7.5146933594147819e-08   5.6957751397426585e-08   7.6310513772066728e-08   5.6281769553546979e-08   7.8759672944621889e-08   5.7298507055397848e-08   8.1993489989365729e-08   5.9588507349560859e-08   8.5777452699753664e-08   6.2959943377153021e-08   8.9936468780146986e-08   6.7255091996789274e-08   9.4302792508154263e-08   7.2301324147174308e-08   9.8706534792151898e-08   7.7902698708829856e-08   1.0297791100704421e-07   8.3843422089583383e-08   1.0695262741229361e-07   8.9895050990593327e-08   1.1047789551309051e-07   9.5824982617450133e-08   1.1341822587890474e-07   1.0140531784814335e-07   1.1566061503186210e-07   1.0642159967430146e-07   1.1711888312659236e-07   1.1068104962797620e-07   1.1773698459609487e-07   1.1401997485225702e-07   1.1749116169456010e-07   1.1631005837934425e-07   1.1639085746634708e-07   1.1746329017691675e-07   1.1447835288471560e-07   1.1743534928858345e-07   1.1182714206521629e-07   1.1622730704969082e-07   1.0853910797792562e-07   1.1388558590620310e-07   1.0474060715394845e-07   1.1050017538193363e-07   1.0057761368183266e-07   1.0620117360781358e-07   9.6210108430683756e-08   1.0115378672526052e-07   9.1805926423636135e-08   9.5551975924970695e-08   8.7534288188793447e-08   8.9610986635010538e-08   8.3559222268426116e-08   8.3559008954150841e-08   8.0032971624297719e-08   7.7628141503315309e-08   7.7089024436492612e-08   7.2044433338694292e-08   7.4832711536834847e-08   6.7015198759023483e-08   7.3320994457202223e-08   6.2705822676195715e-08   7.2499790125286893e-08   5.9176096443224539e-08   7.1983310004856308e-08   5.6166025683720984e-08   5.8233975917938796e-08   4.1182186690219512e-08   6.0233968012465226e-08   4.1034696983216945e-08   6.4096934343337374e-08   4.3130662384409554e-08   6.9288333597989652e-08   4.7044818959248226e-08   7.5504447071217702e-08   5.2532988661938283e-08   8.2478420781716232e-08   5.9358893580465231e-08   8.9934805494903668e-08   6.7253412739038350e-08   9.7585092126245337e-08   7.5911353403945255e-08   1.0513476774152903e-07   8.4999514919794564e-08   1.1229356446184922e-07   9.4168514155335835e-08   1.1878633382370551e-07   1.0306595328352606e-07   1.2436354784318730e-07   1.1134989458303934e-07   1.2881086960854526e-07   1.1870198340093870e-07   1.3195738542148043e-07   1.2483967782006156e-07   1.3368217174331220e-07   1.2952710538837962e-07   1.3391894193453727e-07   1.3258412721428544e-07   1.3265859355431742e-07   1.3389326047512901e-07   1.2994955816819365e-07   1.3340419315714439e-07   1.2589594018348083e-07   1.3113571748995003e-07   1.2065351622055193e-07   1.2717500775993543e-07   1.1442374872300228e-07   1.2167427022349468e-07   1.0744604370077441e-07   1.1484489373109674e-07   9.9988549491249293e-08   1.0694932530960073e-07   9.2337847571017484e-08   9.8290980727008058e-08   8.4787921513466525e-08   8.9202569023673399e-08   7.7628788780914732e-08   8.0033245250876298e-08   7.1135080982566736e-08   7.1134951088467789e-08   6.5554433628686212e-08   6.2847952120180045e-08   6.1093944295972079e-08   5.5484160524280122e-08   5.7897022141876158e-08   4.9301468704088424e-08   5.5981180894748306e-08   4.4442509448029033e-08   5.5029422425554294e-08   4.0740308408154147e-08   4.2601878760386818e-08   2.7309263042170737e-08   4.5394742010051920e-08   2.7663360138157972e-08   5.0553527661239707e-08   3.0726424574324624e-08   5.7529988565644747e-08   3.6085468821556002e-08   6.5961925668881971e-08   4.3454541339748532e-08   7.5500118372487065e-08   5.2528851775347572e-08   8.5771332963852549e-08   6.2953895637308422e-08   9.6379091022822778e-08   7.4327507349964448e-08   1.0691527930166458e-07   8.6212197140492357e-08   1.1697487391938519e-07   9.8151131927197299e-08   1.2617125409488698e-07   1.0968547183362548e-07   1.3415099476350131e-07   1.2037194594515160e-07   1.4060743185373143e-07   1.2979987217278222e-07   1.4529244297794365e-07   1.3760693569996309e-07   1.4802598154845769e-07   1.4349311149566661e-07   1.4870299557517641e-07   1.4723219377709276e-07   1.4729746467314639e-07   1.4868048883168625e-07   1.4386339999874350e-07   1.4778233701332173e-07   1.3853276865429462e-07   1.4457225167658529e-07   1.3151042231096026e-07   1.3917359284042837e-07   1.2306622490387962e-07   1.3179382652484337e-07   1.1352468178095536e-07   1.2271655182894161e-07   1.0325246826148444e-07   1.1229060167801781e-07   9.2644334540911256e-08   1.0091663420253961e-07   8.2107919465305261e-08   8.9031722522468276e-08   7.2048021289019905e-08   7.7092505655284493e-08   6.2850793391739531e-08   6.5557433600094989e-08   5.4867951988040745e-08   5.4868349318158976e-08   4.8399637290959063e-08   4.5430444179017528e-08   4.3669236691573160e-08   3.7585073439006544e-08   4.0764012800479226e-08   3.1553199449461336e-08   3.9446277695166908e-08   2.7268005507656827e-08   2.8851428853282868e-08   1.5872151247760244e-08   3.2363113999961156e-08   1.6681624345753042e-08   3.8649922025617539e-08   2.0562485235645209e-08   4.7170321901148239e-08   2.7131619634362726e-08   5.7516602340360811e-08   3.6073481332434405e-08   6.9269734670585686e-08   4.7027441616387556e-08   8.1972376756745603e-08   5.9568001695454547e-08   9.5134880333908513e-08   7.3212028310848336e-08   1.0825102528359512e-07   8.7434868151594373e-08   1.2081665984417426e-07   1.0168985723178513e-07   1.3234886242925615e-07   1.1542915708854338e-07   1.4240444514293187e-07   1.2812476320294476e-07   1.5059697118366306e-07   1.3928878437458884e-07   1.5661160179078380e-07   1.4849218909658516e-07   1.602171