<?xml version="1.0"?>
<VTKFile type="UnstructuredGrid"  version="0.1"  >
<UnstructuredGrid>
<Piece  NumberOfPoints="81" NumberOfCells="128">
<Points>
<DataArray  type="Float64"  NumberOfComponents="3"  format="ascii">0 0 0  0.125 0 0  0.25 0 0  0.375 0 0  0.5 0 0  0.625 0 0  0.75 0 0  0.875 0 0  1 0 0  0 0.125 0  0.125 0.125 0  0.25 0.125 0  0.375 0.125 0  0.5 0.125 0  0.625 0.125 0  0.75 0.125 0  0.875 0.125 0  1 0.125 0  0 0.25 0  0.125 0.25 0  0.25 0.25 0  0.375 0.25 0  0.5 0.25 0  0.625 0.25 0  0.75 0.25 0  0.875 0.25 0  1 0.25 0  0 0.375 0  0.125 0.375 0  0.25 0.375 0  0.375 0.375 0  0.5 0.375 0  0.625 0.375 0  0.75 0.375 0  0.875 0.375 0  1 0.375 0  0 0.5 0  0.125 0.5 0  0.25 0.5 0  0.375 0.5 0  0.5 0.5 0  0.625 0.5 0  0.75 0.5 0  0.875 0.5 0  1 0.5 0  0 0.625 0  0.125 0.625 0  0.25 0.625 0  0.375 0.625 0  0.5 0.625 0  0.625 0.625 0  0.75 0.625 0  0.875 0.625 0  1 0.625 0  0 0.75 0  0.125 0.75 0  0.25 0.75 0  0.375 0.75 0  0.5 0.75 0  0.625 0.75 0  0.75 0.75 0  0.875 0.75 0  1 0.75 0  0 0.875 0  0.125 0.875 0  0.25 0.875 0  0.375 0.875 0  0.5 0.875 0  0.625 0.875 0  0.75 0.875 0  0.875 0.875 0  1 0.875 0  0 1 0  0.125 1 0  0.25 1 0  0.375 1 0  0.5 1 0  0.625 1 0  0.75 1 0  0.875 1 0  1 1 0  </DataArray>
</Points>
<Cells>
<DataArray  type="UInt32"  Name="connectivity"  format="ascii">0 1 10  0 9 10  1 2 11  1 10 11  2 3 12  2 11 12  3 4 13  3 12 13  4 5 14  4 13 14  5 6 15  5 14 15  6 7 16  6 15 16  7 8 17  7 16 17  9 10 19  9 18 19  10 11 20  10 19 20  11 12 21  11 20 21  12 13 22  12 21 22  13 14 23  13 22 23  14 15 24  14 23 24  15 16 25  15 24 25  16 17 26  16 25 26  18 19 28  18 27 28  19 20 29  19 28 29  20 21 30  20 29 30  21 22 31  21 30 31  22 23 32  22 31 32  23 24 33  23 32 33  24 25 34  24 33 34  25 26 35  25 34 35  27 28 37  27 36 37  28 29 38  28 37 38  29 30 39  29 38 39  30 31 40  30 39 40  31 32 41  31 40 41  32 33 42  32 41 42  33 34 43  33 42 43  34 35 44  34 43 44  36 37 46  36 45 46  37 38 47  37 46 47  38 39 48  38 47 48  39 40 49  39 48 49  40 41 50  40 49 50  41 42 51  41 50 51  42 43 52  42 51 52  43 44 53  43 52 53  45 46 55  45 54 55  46 47 56  46 55 56  47 48 57  47 56 57  48 49 58  48 57 58  49 50 59  49 58 59  50 51 60  50 59 60  51 52 61  51 60 61  52 53 62  52 61 62  54 55 64  54 63 64  55 56 65  55 64 65  56 57 66  56 65 66  57 58 67  57 66 67  58 59 68  58 67 68  59 60 69  59 68 69  60 61 70  60 69 70  61 62 71  61 70 71  63 64 73  63 72 73  64 65 74  64 73 74  65 66 75  65 74 75  66 67 76  66 75 76  67 68 77  67 76 77  68 69 78  68 77 78  69 70 79  69 78 79  70 71 80  70 79 80  </DataArray>
<DataArray  type="UInt32"  Name="offsets"  format="ascii">3 6 9 12 15 18 21 24 27 30 33 36 39 42 45 48 51 54 57 60 63 66 69 72 75 78 81 84 87 90 93 96 99 102 105 108 111 114 117 120 123 126 129 132 135 138 141 144 147 150 153 156 159 162 165 168 171 174 177 180 183 186 189 192 195 198 201 204 207 210 213 216 219 222 225 228 231 234 237 240 243 246 249 252 255 258 261 264 267 270 273 276 279 282 285 288 291 294 297 300 303 306 309 312 315 318 321 324 327 330 333 336 339 342 345 348 351 354 357 360 363 366 369 372 375 378 381 384 </DataArray>
<DataArray  type="UInt8"  Name="types"  format="ascii">5 5 5 5 5 5 5 5 5 5 5 5 5 5 5 5 5 5 5 5 5 5 5 5 5 5 5 5 5 5 5 5 5 5 5 5 5 5 5 5 5 5 5 5 5 5 5 5 5 5 5 5 5 5 5 5 5 5 5 5 5 5 5 5 5 5 5 5 5 5 5 5 5 5 5 5 5 5 5 5 5 5 5 5 5 5 5 5 5 5 5 5 5 5 5 5 5 5 5 5 5 5 5 5 5 5 5 5 5 5 5 5 5 5 5 5 5 5 5 5 5 5 5 5 5 5 5 5 </DataArray>
</Cells>
<CellData  Scalars="f_37649"> 
<DataArray  type="Float64"  Name="f_37649"  format="ascii">5.1068907920915967e-04   5.1593686872285075e-04   9.9316865630740599e-04   1.4072912691663825e-03   1.3204986814141469e-03   2.2660765225661884e-03   1.3005495952741997e-03   2.6271900687273335e-03   9.4609028878927495e-04   2.2798705564918615e-03   4.6610793294053125e-04   1.4296653526639004e-03   1.4533950288533415e-04   5.7814572601087963e-04   1.2978115901870099e-04   2.3122413108657460e-04   2.4394319747849235e-03   2.0387806870689959e-03   3.0381063623717971e-03   3.0394300607757135e-03   2.9909656549753473e-03   2.9850807674663363e-03   2.3301504912008005e-03   2.3119345177971986e-03   1.4476360071500305e-03   1.4227994134858833e-03   8.6592713081625708e-04   8.4424871976219930e-04   9.3528070386275815e-04   9.2199236954091247e-04   1.2031280108860559e-03   1.6176966763372914e-03   4.8116702288460537e-03   3.8792235616522913e-03   4.4899352103469677e-03   4.4893525333391752e-03   3.1105881013255496e-03   3.1050042461064327e-03   1.4934382817585017e-03   1.4811739285507976e-03   5.9366204134453436e-04   5.8052572755841773e-04   9.4560799769227396e-04   9.3577050856942837e-04   2.3508187916203571e-03   2.3436098760096645e-03   3.0361825127292550e-03   3.9795421601248873e-03   6.2606639885129985e-03   4.9459021743936396e-03   4.8919413185698852e-03   4.8970522144910879e-03   2.5543839154445660e-03   2.5551562030129409e-03   6.2961843878002780e-04   6.2650239645848358e-04   2.5083308762918494e-04   2.4751239310225428e-04   1.6440177091307892e-03   1.6403378660792092e-03   3.9925336288310458e-03   3.9879712479794528e-03   4.5923085171647995e-03   5.9066125534126337e-03   5.9349313604668457e-03   4.6110131325296311e-03   4.0136076638131197e-03   4.0233544933540658e-03   1.6556688202076482e-03   1.6606337072175615e-03   2.4793334122310087e-04   2.5121268754729227e-04   6.1442866532949373e-04   6.1751256560883773e-04   2.5386406958971220e-03   2.5391204981105161e-03   4.8842752533705906e-03   4.8837835267252997e-03   4.9535427079117032e-03   6.2647908704038637e-03   4.0268013820996011e-03   3.0712822439573229e-03   2.3734079072853399e-03   2.3846191427784962e-03   9.4308061324187308e-04   9.5284336756965081e-04   5.6918831171111578e-04   5.8094135616469211e-04   1.4639324421535016e-03   1.4748994549048646e-03   3.0968795141623085e-03   3.1024635633293794e-03   4.4992879321028318e-03   4.5025341609275463e-03   3.9093967863563063e-03   4.8445749626678672e-03   1.6602352878776951e-03   1.2356266350057132e-03   9.3961243253757177e-04   9.5278230855478741e-04   8.3876300678420294e-04   8.5626280361820236e-04   1.4049037426151524e-03   1.4244595952547438e-03   2.2978066117020609e-03   2.3113814863283655e-03   2.9883138052195874e-03   2.9915653621410375e-03   3.0643447121123505e-03   3.0630421945925627e-03   2.0756270803402193e-03   2.4822964323728460e-03   2.4471794351531913e-04   1.4350923229455536e-04   5.7072536729274614e-04   1.4805454819244438e-04   1.4106209194270209e-03   4.5933657118463932e-04   2.2614939752846250e-03   9.3744025644749713e-04   2.6205757046111949e-03   1.2975369228830818e-03   2.2760021116423786e-03   1.3277417470908624e-03   1.4303664823449276e-03   1.0102164093091022e-03   5.3820981342071663e-04   5.3290172741738730e-04   </DataArray> 
</CellData> 
</Piece>
</UnstructuredGrid>
</VTKFile>