<?xml version="1.0"?>
<VTKFile type="UnstructuredGrid"  version="0.1"  >
<UnstructuredGrid>
<Piece  NumberOfPoints="1089" NumberOfCells="2048">
<Points>
<DataArray  type="Float64"  NumberOfComponents="3"  format="ascii">0 0 0  0.03125 0 0  0.0625 0 0  0.09375 0 0  0.125 0 0  0.15625 0 0  0.1875 0 0  0.21875 0 0  0.25 0 0  0.28125 0 0  0.3125 0 0  0.34375 0 0  0.375 0 0  0.40625 0 0  0.4375 0 0  0.46875 0 0  0.5 0 0  0.53125 0 0  0.5625 0 0  0.59375 0 0  0.625 0 0  0.65625 0 0  0.6875 0 0  0.71875 0 0  0.75 0 0  0.78125 0 0  0.8125 0 0  0.84375 0 0  0.875 0 0  0.90625 0 0  0.9375 0 0  0.96875 0 0  1 0 0  0 0.03125 0  0.03125 0.03125 0  0.0625 0.03125 0  0.09375 0.03125 0  0.125 0.03125 0  0.15625 0.03125 0  0.1875 0.03125 0  0.21875 0.03125 0  0.25 0.03125 0  0.28125 0.03125 0  0.3125 0.03125 0  0.34375 0.03125 0  0.375 0.03125 0  0.40625 0.03125 0  0.4375 0.03125 0  0.46875 0.03125 0  0.5 0.03125 0  0.53125 0.03125 0  0.5625 0.03125 0  0.59375 0.03125 0  0.625 0.03125 0  0.65625 0.03125 0  0.6875 0.03125 0  0.71875 0.03125 0  0.75 0.03125 0  0.78125 0.03125 0  0.8125 0.03125 0  0.84375 0.03125 0  0.875 0.03125 0  0.90625 0.03125 0  0.9375 0.03125 0  0.96875 0.03125 0  1 0.03125 0  0 0.0625 0  0.03125 0.0625 0  0.0625 0.0625 0  0.09375 0.0625 0  0.125 0.0625 0  0.15625 0.0625 0  0.1875 0.0625 0  0.21875 0.0625 0  0.25 0.0625 0  0.28125 0.0625 0  0.3125 0.0625 0  0.34375 0.0625 0  0.375 0.0625 0  0.40625 0.0625 0  0.4375 0.0625 0  0.46875 0.0625 0  0.5 0.0625 0  0.53125 0.0625 0  0.5625 0.0625 0  0.59375 0.0625 0  0.625 0.0625 0  0.65625 0.0625 0  0.6875 0.0625 0  0.71875 0.0625 0  0.75 0.0625 0  0.78125 0.0625 0  0.8125 0.0625 0  0.84375 0.0625 0  0.875 0.0625 0  0.90625 0.0625 0  0.9375 0.0625 0  0.96875 0.0625 0  1 0.0625 0  0 0.09375 0  0.03125 0.09375 0  0.0625 0.09375 0  0.09375 0.09375 0  0.125 0.09375 0  0.15625 0.09375 0  0.1875 0.09375 0  0.21875 0.09375 0  0.25 0.09375 0  0.28125 0.09375 0  0.3125 0.09375 0  0.34375 0.09375 0  0.375 0.09375 0  0.40625 0.09375 0  0.4375 0.09375 0  0.46875 0.09375 0  0.5 0.09375 0  0.53125 0.09375 0  0.5625 0.09375 0  0.59375 0.09375 0  0.625 0.09375 0  0.65625 0.09375 0  0.6875 0.09375 0  0.71875 0.09375 0  0.75 0.09375 0  0.78125 0.09375 0  0.8125 0.09375 0  0.84375 0.09375 0  0.875 0.09375 0  0.90625 0.09375 0  0.9375 0.09375 0  0.96875 0.09375 0  1 0.09375 0  0 0.125 0  0.03125 0.125 0  0.0625 0.125 0  0.09375 0.125 0  0.125 0.125 0  0.15625 0.125 0  0.1875 0.125 0  0.21875 0.125 0  0.25 0.125 0  0.28125 0.125 0  0.3125 0.125 0  0.34375 0.125 0  0.375 0.125 0  0.40625 0.125 0  0.4375 0.125 0  0.46875 0.125 0  0.5 0.125 0  0.53125 0.125 0  0.5625 0.125 0  0.59375 0.125 0  0.625 0.125 0  0.65625 0.125 0  0.6875 0.125 0  0.71875 0.125 0  0.75 0.125 0  0.78125 0.125 0  0.8125 0.125 0  0.84375 0.125 0  0.875 0.125 0  0.90625 0.125 0  0.9375 0.125 0  0.96875 0.125 0  1 0.125 0  0 0.15625 0  0.03125 0.15625 0  0.0625 0.15625 0  0.09375 0.15625 0  0.125 0.15625 0  0.15625 0.15625 0  0.1875 0.15625 0  0.21875 0.15625 0  0.25 0.15625 0  0.28125 0.15625 0  0.3125 0.15625 0  0.34375 0.15625 0  0.375 0.15625 0  0.40625 0.15625 0  0.4375 0.15625 0  0.46875 0.15625 0  0.5 0.15625 0  0.53125 0.15625 0  0.5625 0.15625 0  0.59375 0.15625 0  0.625 0.15625 0  0.65625 0.15625 0  0.6875 0.15625 0  0.71875 0.15625 0  0.75 0.15625 0  0.78125 0.15625 0  0.8125 0.15625 0  0.84375 0.15625 0  0.875 0.15625 0  0.90625 0.15625 0  0.9375 0.15625 0  0.96875 0.15625 0  1 0.15625 0  0 0.1875 0  0.03125 0.1875 0  0.0625 0.1875 0  0.09375 0.1875 0  0.125 0.1875 0  0.15625 0.1875 0  0.1875 0.1875 0  0.21875 0.1875 0  0.25 0.1875 0  0.28125 0.1875 0  0.3125 0.1875 0  0.34375 0.1875 0  0.375 0.1875 0  0.40625 0.1875 0  0.4375 0.1875 0  0.46875 0.1875 0  0.5 0.1875 0  0.53125 0.1875 0  0.5625 0.1875 0  0.59375 0.1875 0  0.625 0.1875 0  0.65625 0.1875 0  0.6875 0.1875 0  0.71875 0.1875 0  0.75 0.1875 0  0.78125 0.1875 0  0.8125 0.1875 0  0.84375 0.1875 0  0.875 0.1875 0  0.90625 0.1875 0  0.9375 0.1875 0  0.96875 0.1875 0  1 0.1875 0  0 0.21875 0  0.03125 0.21875 0  0.0625 0.21875 0  0.09375 0.21875 0  0.125 0.21875 0  0.15625 0.21875 0  0.1875 0.21875 0  0.21875 0.21875 0  0.25 0.21875 0  0.28125 0.21875 0  0.3125 0.21875 0  0.34375 0.21875 0  0.375 0.21875 0  0.40625 0.21875 0  0.4375 0.21875 0  0.46875 0.21875 0  0.5 0.21875 0  0.53125 0.21875 0  0.5625 0.21875 0  0.59375 0.21875 0  0.625 0.21875 0  0.65625 0.21875 0  0.6875 0.21875 0  0.71875 0.21875 0  0.75 0.21875 0  0.78125 0.21875 0  0.8125 0.21875 0  0.84375 0.21875 0  0.875 0.21875 0  0.90625 0.21875 0  0.9375 0.21875 0  0.96875 0.21875 0  1 0.21875 0  0 0.25 0  0.03125 0.25 0  0.0625 0.25 0  0.09375 0.25 0  0.125 0.25 0  0.15625 0.25 0  0.1875 0.25 0  0.21875 0.25 0  0.25 0.25 0  0.28125 0.25 0  0.3125 0.25 0  0.34375 0.25 0  0.375 0.25 0  0.40625 0.25 0  0.4375 0.25 0  0.46875 0.25 0  0.5 0.25 0  0.53125 0.25 0  0.5625 0.25 0  0.59375 0.25 0  0.625 0.25 0  0.65625 0.25 0  0.6875 0.25 0  0.71875 0.25 0  0.75 0.25 0  0.78125 0.25 0  0.8125 0.25 0  0.84375 0.25 0  0.875 0.25 0  0.90625 0.25 0  0.9375 0.25 0  0.96875 0.25 0  1 0.25 0  0 0.28125 0  0.03125 0.28125 0  0.0625 0.28125 0  0.09375 0.28125 0  0.125 0.28125 0  0.15625 0.28125 0  0.1875 0.28125 0  0.21875 0.28125 0  0.25 0.28125 0  0.28125 0.28125 0  0.3125 0.28125 0  0.34375 0.28125 0  0.375 0.28125 0  0.40625 0.28125 0  0.4375 0.28125 0  0.46875 0.28125 0  0.5 0.28125 0  0.53125 0.28125 0  0.5625 0.28125 0  0.59375 0.28125 0  0.625 0.28125 0  0.65625 0.28125 0  0.6875 0.28125 0  0.71875 0.28125 0  0.75 0.28125 0  0.78125 0.28125 0  0.8125 0.28125 0  0.84375 0.28125 0  0.875 0.28125 0  0.90625 0.28125 0  0.9375 0.28125 0  0.96875 0.28125 0  1 0.28125 0  0 0.3125 0  0.03125 0.3125 0  0.0625 0.3125 0  0.09375 0.3125 0  0.125 0.3125 0  0.15625 0.3125 0  0.1875 0.3125 0  0.21875 0.3125 0  0.25 0.3125 0  0.28125 0.3125 0  0.3125 0.3125 0  0.34375 0.3125 0  0.375 0.3125 0  0.40625 0.3125 0  0.4375 0.3125 0  0.46875 0.3125 0  0.5 0.3125 0  0.53125 0.3125 0  0.5625 0.3125 0  0.59375 0.3125 0  0.625 0.3125 0  0.65625 0.3125 0  0.6875 0.3125 0  0.71875 0.3125 0  0.75 0.3125 0  0.78125 0.3125 0  0.8125 0.3125 0  0.84375 0.3125 0  0.875 0.3125 0  0.90625 0.3125 0  0.9375 0.3125 0  0.96875 0.3125 0  1 0.3125 0  0 0.34375 0  0.03125 0.34375 0  0.0625 0.34375 0  0.09375 0.34375 0  0.125 0.34375 0  0.15625 0.34375 0  0.1875 0.34375 0  0.21875 0.34375 0  0.25 0.34375 0  0.28125 0.34375 0  0.3125 0.34375 0  0.34375 0.34375 0  0.375 0.34375 0  0.40625 0.34375 0  0.4375 0.34375 0  0.46875 0.34375 0  0.5 0.34375 0  0.53125 0.34375 0  0.5625 0.34375 0  0.59375 0.34375 0  0.625 0.34375 0  0.65625 0.34375 0  0.6875 0.34375 0  0.71875 0.34375 0  0.75 0.34375 0  0.78125 0.34375 0  0.8125 0.34375 0  0.84375 0.34375 0  0.875 0.34375 0  0.90625 0.34375 0  0.9375 0.34375 0  0.96875 0.34375 0  1 0.34375 0  0 0.375 0  0.03125 0.375 0  0.0625 0.375 0  0.09375 0.375 0  0.125 0.375 0  0.15625 0.375 0  0.1875 0.375 0  0.21875 0.375 0  0.25 0.375 0  0.28125 0.375 0  0.3125 0.375 0  0.34375 0.375 0  0.375 0.375 0  0.40625 0.375 0  0.4375 0.375 0  0.46875 0.375 0  0.5 0.375 0  0.53125 0.375 0  0.5625 0.375 0  0.59375 0.375 0  0.625 0.375 0  0.65625 0.375 0  0.6875 0.375 0  0.71875 0.375 0  0.75 0.375 0  0.78125 0.375 0  0.8125 0.375 0  0.84375 0.375 0  0.875 0.375 0  0.90625 0.375 0  0.9375 0.375 0  0.96875 0.375 0  1 0.375 0  0 0.40625 0  0.03125 0.40625 0  0.0625 0.40625 0  0.09375 0.40625 0  0.125 0.40625 0  0.15625 0.40625 0  0.1875 0.40625 0  0.21875 0.40625 0  0.25 0.40625 0  0.28125 0.40625 0  0.3125 0.40625 0  0.34375 0.40625 0  0.375 0.40625 0  0.40625 0.40625 0  0.4375 0.40625 0  0.46875 0.40625 0  0.5 0.40625 0  0.53125 0.40625 0  0.5625 0.40625 0  0.59375 0.40625 0  0.625 0.40625 0  0.65625 0.40625 0  0.6875 0.40625 0  0.71875 0.40625 0  0.75 0.40625 0  0.78125 0.40625 0  0.8125 0.40625 0  0.84375 0.40625 0  0.875 0.40625 0  0.90625 0.40625 0  0.9375 0.40625 0  0.96875 0.40625 0  1 0.40625 0  0 0.4375 0  0.03125 0.4375 0  0.0625 0.4375 0  0.09375 0.4375 0  0.125 0.4375 0  0.15625 0.4375 0  0.1875 0.4375 0  0.21875 0.4375 0  0.25 0.4375 0  0.28125 0.4375 0  0.3125 0.4375 0  0.34375 0.4375 0  0.375 0.4375 0  0.40625 0.4375 0  0.4375 0.4375 0  0.46875 0.4375 0  0.5 0.4375 0  0.53125 0.4375 0  0.5625 0.4375 0  0.59375 0.4375 0  0.625 0.4375 0  0.65625 0.4375 0  0.6875 0.4375 0  0.71875 0.4375 0  0.75 0.4375 0  0.78125 0.4375 0  0.8125 0.4375 0  0.84375 0.4375 0  0.875 0.4375 0  0.90625 0.4375 0  0.9375 0.4375 0  0.96875 0.4375 0  1 0.4375 0  0 0.46875 0  0.03125 0.46875 0  0.0625 0.46875 0  0.09375 0.46875 0  0.125 0.46875 0  0.15625 0.46875 0  0.1875 0.46875 0  0.21875 0.46875 0  0.25 0.46875 0  0.28125 0.46875 0  0.3125 0.46875 0  0.34375 0.46875 0  0.375 0.46875 0  0.40625 0.46875 0  0.4375 0.46875 0  0.46875 0.46875 0  0.5 0.46875 0  0.53125 0.46875 0  0.5625 0.46875 0  0.59375 0.46875 0  0.625 0.46875 0  0.65625 0.46875 0  0.6875 0.46875 0  0.71875 0.46875 0  0.75 0.46875 0  0.78125 0.46875 0  0.8125 0.46875 0  0.84375 0.46875 0  0.875 0.46875 0  0.90625 0.46875 0  0.9375 0.46875 0  0.96875 0.46875 0  1 0.46875 0  0 0.5 0  0.03125 0.5 0  0.0625 0.5 0  0.09375 0.5 0  0.125 0.5 0  0.15625 0.5 0  0.1875 0.5 0  0.21875 0.5 0  0.25 0.5 0  0.28125 0.5 0  0.3125 0.5 0  0.34375 0.5 0  0.375 0.5 0  0.40625 0.5 0  0.4375 0.5 0  0.46875 0.5 0  0.5 0.5 0  0.53125 0.5 0  0.5625 0.5 0  0.59375 0.5 0  0.625 0.5 0  0.65625 0.5 0  0.6875 0.5 0  0.71875 0.5 0  0.75 0.5 0  0.78125 0.5 0  0.8125 0.5 0  0.84375 0.5 0  0.875 0.5 0  0.90625 0.5 0  0.9375 0.5 0  0.96875 0.5 0  1 0.5 0  0 0.53125 0  0.03125 0.53125 0  0.0625 0.53125 0  0.09375 0.53125 0  0.125 0.53125 0  0.15625 0.53125 0  0.1875 0.53125 0  0.21875 0.53125 0  0.25 0.53125 0  0.28125 0.53125 0  0.3125 0.53125 0  0.34375 0.53125 0  0.375 0.53125 0  0.40625 0.53125 0  0.4375 0.53125 0  0.46875 0.53125 0  0.5 0.53125 0  0.53125 0.53125 0  0.5625 0.53125 0  0.59375 0.53125 0  0.625 0.53125 0  0.65625 0.53125 0  0.6875 0.53125 0  0.71875 0.53125 0  0.75 0.53125 0  0.78125 0.531
[...]
<CellData  Scalars="f_59154"> 
<DataArray  type="Float64"  Name="f_59154"  format="ascii">8.3125628193196942e-09   1.3031044301886966e-08   1.3788572795483393e-08   1.5571175354251318e-08   2.3087561664496424e-08   2.1957781878462836e-08   3.5853689211041992e-08   3.1960539167034420e-08   5.1596700936321369e-08   4.5195320424639889e-08   6.9711698098570255e-08   6.1153460308521977e-08   8.9502551281221652e-08   7.9221657210464400e-08   1.1020870743491508e-07   9.8705551098513462e-08   1.3103443486790103e-07   1.1885638952180242e-07   1.5117940756764601e-07   1.3889979227967664e-07   1.6986946215379901e-07   1.5806550710225079e-07   1.8638634831760223e-07   1.7561700932053914e-07   2.0009533035817386e-07   1.9087980628158886e-07   2.1046957935854075e-07   2.0326735809637897e-07   2.1711041867171126e-07   2.1230361836993172e-07   2.1976264467830037e-07   2.1764132863843963e-07   2.1832433402528045e-07   2.1907536347498592e-07   2.1285076043923792e-07   2.1655061343920553e-07   2.0355227058268614e-07   2.1016410295156528e-07   1.9078620057641617e-07   2.0016126171433632e-07   1.7504314382252617e-07   1.8692649297428109e-07   1.5692809783037509e-07   1.7096840109057061e-07   1.3713721450768857e-07   1.5290024612077077e-07   1.1643104725908344e-07   1.3341637658010732e-07   9.5605322672641415e-08   1.1326554613218420e-07   7.5460359273173850e-08   9.3222139794083952e-08   5.6770306731337547e-08   7.4056415665389638e-08   4.0253382599175098e-08   5.6504905857499239e-08   2.6544236890215837e-08   4.1242111821772147e-08   1.6169419939585344e-08   2.8854569279874338e-08   9.5272287804179482e-09   1.9817994287166219e-08   6.8606912467120243e-09   1.4482499139973806e-08   1.7886252090085739e-08   2.5269163678247959e-08   2.2872870291407571e-08   2.7453375116295828e-08   3.1326686870932285e-08   3.3045878288741691e-08   4.2917718610908064e-08   4.1838670612277523e-08   5.7200059252755516e-08   5.3494637030667506e-08   7.3624771585614945e-08   6.7566012865740346e-08   9.1560653846615195e-08   8.3512076708439998e-08   1.1031843786007566e-07   1.0072003695395875e-07   1.2917726949754166e-07   1.1852860490322368e-07   1.4741241110596436e-07   1.3625341109961685e-07   1.6432309351935280e-07   1.5321330484433742e-07   1.7925944648315935e-07   1.6875652993301361e-07   1.9164747275956858e-07   1.8228577114790904e-07   2.0101110636766192e-07   1.9328110883983890e-07   2.0699050737019886e-07   2.0131999931926501e-07   2.0935589018253527e-07   2.0609351314207858e-07   2.0801635399657631e-07   2.0741820723351385e-07   2.0302337596187403e-07   2.0524317460738811e-07   1.9456883287165574e-07   1.9965200076928757e-07   1.8297762735951242e-07   1.9085955162706293e-07   1.6869520195530303e-07   1.7920371635027782e-07   1.5227042078914326e-07   1.6513242249681542e-07   1.3433447674078103e-07   1.4918642238548334e-07   1.1557663456801448e-07   1.3197851216511785e-07   9.6717742202304869e-08   1.1416998201131051e-07   7.8482528484877126e-08   9.6445202015362894e-08   6.1571753475251189e-08   7.9485319301459085e-08   4.6635287051237145e-08   6.3942074498108043e-08   3.4247167628593843e-08   5.0412737845934341e-08   2.4883582554745490e-08   3.9417132167031936e-08   1.8904686680242239e-08   3.1377333884771746e-08   1.6529826507951580e-08   2.6609002391920511e-08   3.1209442601528534e-08   4.0913241741454047e-08   3.5536712844032899e-08   4.2647124423256479e-08   4.2835295066616763e-08   4.7217479115599009e-08   5.2817528991229056e-08   5.4452982701989585e-08   6.5100129386433555e-08   6.4076186379069304e-08   7.9210939698711996e-08   7.5717304470302477e-08   9.4607617403085823e-08   8.8929028959257505e-08   1.1069844783457419e-07   1.0320367092055625e-07   1.2686505686336076e-07   1.1799267860376892e-07   1.4248616422156490e-07   1.3272772659182389e-07   1.5696145541558778e-07   1.4684256017839698e-07   1.6973465026005333e-07   1.5979475769950509e-07   1.8031487993086160e-07   1.7108657604658737e-07   1.8829555052823419e-07   1.8028407890935929e-07   1.9336996808475759e-07   1.8703381286677830e-07   1.9534312451192398e-07   1.9107639052999089e-07   1.9413919154239087e-07   1.9225645875734838e-07   1.8980443466952487e-07   1.9052866887110421e-07   1.8250543509533191e-07   1.8595941944181944e-07   1.7252268801034481e-07   1.7872430466059170e-07   1.6023982322847597e-07   1.6910136633802711e-07   1.4612886245827881e-07   1.5746040880976454e-07   1.3073207988485774e-07   1.4424878727106720e-07   1.1464116346532684e-07   1.2997421548490067e-07   9.8474478534005899e-08   1.1518525316025502e-07   8.2853309266214412e-08   1.0045022217051217e-07   6.8377994883674345e-08   8.6335360912777481e-08   5.5604884049506478e-08   7.3383056198349792e-08   4.5024994835773556e-08   6.2090994519037426e-08   3.7045086725671244e-08   5.2893078648100372e-08   3.1971600627506665e-08   4.6142454667484385e-08   2.9988064219841748e-08   4.2108965956161101e-08   4.7771486666963749e-08   5.9363717358626928e-08   5.1285321553469154e-08   6.0564582858618167e-08   5.7160987263430036e-08   6.3922710393709519e-08   6.5161598688336582e-08   6.9310459503301962e-08   7.4980357137407695e-08   7.6521326511983062e-08   8.6239881065163186e-08   8.5278111670921612e-08   9.8507415681052599e-08   9.5244304786047415e-08   1.1131148838349865e-07   1.0603693291718466e-07   1.2416002529105191e-07   1.1724125898209624e-07   1.3655925350625017e-07   1.2842671801350949e-07   1.4803267154534118e-07   1.3916346579375604e-07   1.5813935857394660e-07   1.4903889943953320e-07   1.6649091762778476e-07   1.5767351457441041e-07   1.7276640097426563e-07   1.6473549000671719e-07   1.7672464369589508e-07   1.6995343969985686e-07   1.7821353137559339e-07   1.7312684212654571e-07   1.7717584566944465e-07   1.7413374628189534e-07   1.7365146310377012e-07   1.7293545823713916e-07   1.6777582259790774e-07   1.6957802813617059e-07   1.5977472062546125e-07   1.6419048047216320e-07   1.4995563409325800e-07   1.5697985561314385e-07   1.3869590452592451e-07   1.4822325305275187e-07   1.2642823790725120e-07   1.3825718202085585e-07   1.1362407794396165e-07   1.2746462849149215e-07   1.0077549265932831e-07   1.1626033532055288e-07   8.8376271816137103e-08   1.0507486106325780e-07   7.6902962680394718e-08   9.4338030886159262e-08   6.6796569188889046e-08   8.4462419668277023e-08   5.8445593947990326e-08   7.5827514039427246e-08   5.2170940192929560e-08   6.8765210461492271e-08   4.8213131881378467e-08   6.3546596178787860e-08   4.6715769202037265e-08   6.0386165239340196e-08   6.6934822491809484e-08   7.9911910412273394e-08   6.9514084972607524e-08   8.0516998353821410e-08   7.3754065207440801e-08   8.2519809933905886e-08   7.9476520129695935e-08   8.5840694175481519e-08   8.6462275660478813e-08   9.0352551273765920e-08   9.4442873997055912e-08   9.5881868229996215e-08   1.0311160133991670e-07   1.0221613134990329e-07   1.1213529522880233e-07   1.0911192188918020e-07   1.2116716025523169e-07   1.1630424924829849e-07   1.2986009472549851e-07   1.2351672581803884e-07   1.3788002680665333e-07   1.3047218689200472e-07   1.4491875053386906e-07   1.3690334253705273e-07   1.5070576870668735e-07   1.4256305018738844e-07   1.5501868727228475e-07   1.4723381274136989e-07   1.5769176146875077e-07   1.5073613716037044e-07   1.5862226513955843e-07   1.5293543243873503e-07   1.5777443836530818e-07   1.5374718192403145e-07   1.5518086167985942e-07   1.5314019124909205e-07   1.5094120406521603e-07   1.5113778706297484e-07   1.4521839288199496e-07   1.4781692047488776e-07   1.3823235301244249e-07   1.4330520961957052e-07   1.3025155598473106e-07   1.3777603492643778e-07   1.2158270411620519e-07   1.3144187548503030e-07   1.1255894650148539e-07   1.2454614251328571e-07   1.0352708008448922e-07   1.1735382385338649e-07   9.4834227472905936e-08   1.1014129967058029e-07   8.6814500908397109e-08   1.0318572282666613e-07   7.9776155652678027e-08   9.6754377177563886e-08   7.3989705130989693e-08   9.1094431101296402e-08   6.9677385437599193e-08   8.6423516290894525e-08   6.7004472823839095e-08   8.2920696832146093e-08   6.6069355542405235e-08   8.0738290944762574e-08   8.7962693529225421e-08   1.0176822947632988e-07   8.9522530220127653e-08   1.0173757820966727e-07   9.1976948094668227e-08   1.0229392348399455e-07   9.5212148735440102e-08   1.0340829153501892e-07   9.9104556199899541e-08   1.0503824942787231e-07   1.0350458124295438e-07   1.0712102227156800e-07   1.0824312825917320e-07   1.0957653396674476e-07   1.1313808220159528e-07   1.1231041162246823e-07   1.1800131848035471e-07   1.1521759649948893e-07   1.2264593534176557e-07   1.1818637255410305e-07   1.2689343599797651e-07   1.2110265635655541e-07   1.3058058700976553e-07   1.2385438054222353e-07   1.3356569030046660e-07   1.2633580065433284e-07   1.3573402793169596e-07   1.2845155914389566e-07   1.3700227032599349e-07   1.3012035012816305e-07   1.3732167842523512e-07   1.3127804404652243e-07   1.3667997666594323e-07   1.3188015215325675e-07   1.3510182476448917e-07   1.3190353616012337e-07   1.3264787019319748e-07   1.3134729732728698e-07   1.2941241780380443e-07   1.3023281082284513e-07   1.2551980623485297e-07   1.2860290400104325e-07   1.2111963047852263e-07   1.2652021014870970e-07   1.1638099433929377e-07   1.2406476096288426e-07   1.1148601371861918e-07   1.2133091038935469e-07   1.0662282008266573e-07   1.1842370843068848e-07   1.0197833164212253e-07   1.1545486528087844e-07   9.7731066482325301e-08   1.1253846295608313e-07   9.4044266992985052e-08   1.0978658263183951e-07   9.1059595039928097e-08   1.0730501802174964e-07   8.8891634843095073e-08   1.0518927349687804e-07   8.7623628023526146e-08   1.0352007318111549e-07   8.7304705179795371e-08   1.0238323891798702e-07   1.1004695662851522e-07   1.2409273760208150e-07   1.1054174221269311e-07   1.2341081982216557e-07   1.1112944150990277e-07   1.2248506026100797e-07   1.1176386245620266e-07   1.2133803177347992e-07   1.1242140991295239e-07   1.2001396745201574e-07   1.1307678193921484e-07   1.1856359378765851e-07   1.1370479126987046e-07   1.1704260959257243e-07   1.1428129606659164e-07   1.1550945138778588e-07   1.1478413292177129e-07   1.1402303486871923e-07   1.1519397091594860e-07   1.1264048376969820e-07   1.1549505500623393e-07   1.1141493138699643e-07   1.1567581113810319e-07   1.1039347746095044e-07   1.1572929051924177e-07   1.0961537785412834e-07   1.1565343625803336e-07   1.0911053599248557e-07   1.1545116217247933e-07   1.0889835377252451e-07   1.1513024071368836e-07   1.0898698600050433e-07   1.1470300427796182e-07   1.0937302699470328e-07   1.1418587137079967e-07   1.1004164139589851e-07   1.1359871583926663e-07   1.1096713415921481e-07   1.1296410344265878e-07   1.1211393781854615e-07   1.1230642514267218e-07   1.1343797908374283e-07   1.1165096045801304e-07   1.1488837227276199e-07   1.1102290685275592e-07   1.1640937458450681e-07   1.1044641224475992e-07   1.1794252829446846e-07   1.0994364716152049e-07   1.1942890802939918e-07   1.0953395075779812e-07   1.2081138763791725e-07   1.0923308111380573e-07   1.2203684084276096e-07   1.0905259667040810e-07   1.2305819249074741e-07   1.0899940091935065e-07   1.2383624071000292e-07   1.0907550390345977e-07   1.2434122257548599e-07   1.0927831393342626e-07   1.2455303356626175e-07   1.0960566503438523e-07   1.2448920084344334e-07   1.3233894308069128e-07   1.4602749348775784e-07   1.3176396661887554e-07   1.4470382334170957e-07   1.3047557179020412e-07   1.4231725262868435e-07   1.2849565266059392e-07   1.3894082730783645e-07   1.2590113069439002e-07   1.3470413409282602e-07   1.2279165581619533e-07   1.2976979627279091e-07   1.1928671928151689e-07   1.2432739767441463e-07   1.1552100882609246e-07   1.1858607091537831e-07   1.1163923353728476e-07   1.1276644652571016e-07   1.0779056346431820e-07   1.0709216835577465e-07   1.0412289745859003e-07   1.0178129635356463e-07   1.0077717945144959e-07   9.7037925409005004e-08   9.7881981840830906e-08   9.3044341617986572e-08   9.5548564317647186e-08   8.9954016978270569e-08   9.3866598089239156e-08   8.7885711507384681e-08   9.2900719825442308e-08   8.6918909334573091e-08   9.2688047749283056e-08   8.7090764118563595e-08   9.3236755319769060e-08   8.8394671168449948e-08   9.4525757320897903e-08   9.0780521141230561e-08   9.6505520427397787e-08   9.4156625574885540e-08   9.9099967096045271e-08   9.8393240283995956e-08   1.0220939957905056e-07   1.0332755127181422e-07   1.0571433156218048e-07   1.0876993167650982e-07   1.0948007986552536e-07   1.1451122953538805e-07   1.1336193914277925e-07   1.2033080669244285e-07   1.1721073979140281e-07   1.2600502045927256e-07   1.2087857469292991e-07   1.3131582262757902e-07   1.2422447622232470e-07   1.3605914568171878e-07   1.2711984029608367e-07   1.4005275287189087e-07   1.2945345740723598e-07   1.4314330584860175e-07   1.3113638022441301e-07   1.4521126331331433e-07   1.3211520214239413e-07   1.4620664470162779e-07   1.5398201116994482e-07   1.6672953764885567e-07   1.5237365477214364e-07   1.6479830003830049e-07   1.4927189794975593e-07   1.6102834515904662e-07   1.4476456096430321e-07   1.5554018514996539e-07   1.3902573794752519e-07   1.4854417930054849e-07   1.3227589665430906e-07   1.4030894609886577e-07   1.2477442353837277e-07   1.3115091670323917e-07   1.1680959181856947e-07   1.2142201231430611e-07   1.0868748238741966e-07   1.1149610245089552e-07   1.0072022089503627e-07   1.0175463163044579e-07   9.3213982891731648e-08   9.2571958303969125e-08   8.6457227605573137e-08   8.4300967372016309e-08   8.0709612511467552e-08   7.7259508516223059e-08   7.6192014746369126e-08   7.1718181195228338e-08   7.3078042875925765e-08   6.7889935555036004e-08   7.1487365222833918e-08   6.5921888802985120e-08   7.1481111144083688e-08   6.5889671503148742e-08   7.3059521978214941e-08   6.7794521052280398e-08   7.6161941927430894e-08   7.1563234037728070e-08   8.0669149211972474e-08   7.7050979325754852e-08   8.6407937877415567e-08   8.4046863812940418e-08   9.3157774101409862e-08   9.2282037020546313e-08   1.0065927104571587e-07   1.0144002319572245e-07   1.0862415629872929e-07   1.1116888404617082e-07   1.1674634848506960e-07   1.2109474493920002e-07   1.2471371702669159e-07   1.3083616500514341e-07   1.3222007340869798e-07   1.4001879903411019e-07   1.3897693615593714e-07   1.4828978784735213e-07   1.4472463542197172e-07   1.5533132420137543e-07   1.4924243209385632e-07   1.6087294070021824e-07   1.5235783624613389e-07   1.6470086541459510e-07   1.5396828934712343e-07   1.6670096939917502e-07   1.7414445108949321e-07   1.8540328917699336e-07   1.7157879907203302e-07   1.8292202123824842e-07   1.6679609814918163e-07   1.7789927242351857e-07   1.5994539941272934e-07   1.7049818841191569e-07   1.5129088194076770e-07   1.6100222004527913e-07   1.4116505146310402e-07   1.4977600943025122e-07   1.2995703193308637e-07   1.3725092309994547e-07   1.1809753788461432e-07   1.2390827498145942e-07   1.0604232109733898e-07   1.1026080774599802e-07   9.4254655607917689e-08   9.6832982262809129e-08   8.3187534088856662e-08   8.4140820565356450e-08   7.3266259452428887e-08   7.2672074390096849e-08   6.4872100611994902e-08   6.2867480672869471e-08   5.8327640484319915e-08   5.5103824043011445e-08   5.3884379301921168e-08   4.9679457073728727e-08   5.1713069632212322e-08   4.6802834672460925e-08   5.1897154519653688e-08   4.6584503199821028e-08   5.4429560909266361e-08   4.9032852166658218e-08   5.9212971564270906e-08   5.4053791777005244e-08   6.6063565000427552e-08   6.1454368732444001e-08   7.4718079667321371e-08   7.0950181383105979e-08   8.4843930819463507e-08   8.2176309328589243e-08   9.6051991165210533e-08   9.4701337538832585e-08   1.0791154396733554e-07   1.0804393617074450e-07   1.1996683380134601e-07   1.2169135904006390e-07   1.3175457896076727e-07   1.3511914993949040e-07   1.4282177321335336e-07   1.4781129952306823e-07   1.5274309618233034e-07   1.5928007852438642e-07   1.6113728351978970e-07   1.6908478654432674e-07   1.6768196556970566e-07   1.7684877439682813e-07   1.7212715060662367e-07   1.8227285972141431e-07   1.7432513182102588e-07   1.8518458026571946e-07   1.9205144543355493e-07   2.0133111830129682e-07   1.8864136606967884e-07   1.9837849556769331e-07   1.8237473389798206e-07   1.9228168854772486e-07   1.7345478528130361e-07   1.8324000297973204e-07   1.6222523126020739e-07   1.7159949211484987e-07   1.4911752735404538e-07   1.5780716175407006e-07   1.3463539116915635e-07   1.4239298590308064e-07   1.1933536118950061e-07   1.2594930285623148e-07   1.0380540818941138e-07   1.0910802534409032e-07   8.8642339329297842e-08   9.2516349787440713e-08   7.4428862971781247e-08   7.6811882520138205e-08   6.1711195381511867e-08   6.2598135904238868e-08   5.0978069859870493e-08   5.0421335211863364e-08   4.2641954966993999e-08   4.0749427258276072e-08   3.7023203593146232e-08   3.3954097335839394e-08   3.4337742013860804e-08   3.0296485468182732e-08   3.4688772020865009e-08   2.9917150878647913e-08   3.8062804998279407e-08   3.2830670330725039e-08   4.4330180332220958e-08   3.8925077934137257e-08   5.3250048200576071e-08   4.7966167966390568e-08   6.4479625210586812e-08   5.9606495388182885e-08   7.7587367128761316e-08   7.3398728213818843e-08   9.2069552398581947e-08   8.8812838668492508e-08   1.0736963907266315e-07   1.0525647254309700e-07   1.2289965126671429e-07   1.2209771400764697e-07   1.3806277343807632e-07   1.3868937107120151e-07   1.5227628492206914e-07   1.5439384849416514e-07   1.6499395671375708e-07   1.6860765303138959e-07   1.7572707237040927e-07   1.8078459181396927e-07   1.8406344036644594e-07   1.9045685970210022e-07   1.8968459695545061e-07   1.9725196177015522e-07   1.9240343461714679e-07   2.0094715598143649e-07   2.0701484667624085e-07   2.1390092288202146e-07   2.0290565780338283e-07   2.1057373458768009e-07   1.9540913170352423e-07   2.0362288146973513e-07   1.8477356492158883e-07   1.9327596445455181e-07   1.7140859056959550e-07   1.7992874399545458e-07   1.5582772171384724e-07   1.6409376512316167e-07   1.3862972120817691e-07   1.4637949265663680e-07   1.2047549877383848e-07   1.2746665457105259e-07   1.0206271151067961e-07   1.0808205086864801e-07   8.4098953168068098e-08   8.8970615865211071e-08   6.7274561696154139e-08   7.0866788295433347e-08   5.2236089884347684e-08   5.4466286167767565e-08   3.9561458652581393e-08   4.0399370212423927e-08   2.9737747857538578e-08   2.9206623067358224e-08   2.3142478099237146e-08   2.1318174854119908e-08   2.0029102848553765e-08   1.7037173432419079e-08   2.0517268413610056e-08   1.6528134541294503e-08   2.4588216033347132e-08   1.9810619522903315e-08   3.2085502772341139e-08   2.6758483600000045e-08   4.2721013484722204e-08   3.7104723612870843e-08   5.6086032773699992e-08   5.0451738943468287e-08   7.1666951412075093e-08   6.6286611333402036e-08   8.8865003591742610e-08   8.4000816429719196e-08   1.0701927648850969e-07   1.0291360957992990e-07   1.2543210793629320e-07   1.2229818719355110e-07   1.4339589636022592e-07   1.4140961834621057e-07   1.6022029326040031e-07   1.5951347341759302e-07   1.7525873653647485e-07   1.7591405058222090e-07   1.8793333002724386e-07   1.8998111881499667e-07   1.9775732451849936e-07   2.0117424414965339e-07   2.0435545074690330e-07   2.0906253189536488e-07   2.0750846432467035e-07   2.1338294528272322e-07   2.1845962424291714e-07   2.2262964986532124e-07   2.1382351017103897e-07   2.1903907893725535e-07   2.0539839039409405e-07   2.1148701275870190e-07   1.9346676668613879e-07   2.0022039415257351e-07   1.7848805135658859e-07   1.8566988491200394e-07   1.6103776883168648e-07   1.6839422630237193e-07   1.4178652571966965e-07   1.4905724125211148e-07   1.2147413911678471e-07   1.2840201620248409e-07   1.0088120464330926e-07   1.0722230924585575e-07   8.0799098789102967e-08   8.6332038876695459e-08   6.1999566997587376e-08   6.6534003019576390e-08   4.5205065993852838e-08   4.8589026842152106e-08   3.1061000193887538e-08   3.3186724140705099e-08   2.0110919185406782e-08   2.0918995600578387e-08   1.27756294