<?xml version="1.0"?>
<VTKFile type="UnstructuredGrid"  version="0.1"  >
<UnstructuredGrid>
<Piece  NumberOfPoints="81" NumberOfCells="128">
<Points>
<DataArray  type="Float64"  NumberOfComponents="3"  format="ascii">0 0 0  0.125 0 0  0.25 0 0  0.375 0 0  0.5 0 0  0.625 0 0  0.75 0 0  0.875 0 0  1 0 0  0 0.125 0  0.125 0.125 0  0.25 0.125 0  0.375 0.125 0  0.5 0.125 0  0.625 0.125 0  0.75 0.125 0  0.875 0.125 0  1 0.125 0  0 0.25 0  0.125 0.25 0  0.25 0.25 0  0.375 0.25 0  0.5 0.25 0  0.625 0.25 0  0.75 0.25 0  0.875 0.25 0  1 0.25 0  0 0.375 0  0.125 0.375 0  0.25 0.375 0  0.375 0.375 0  0.5 0.375 0  0.625 0.375 0  0.75 0.375 0  0.875 0.375 0  1 0.375 0  0 0.5 0  0.125 0.5 0  0.25 0.5 0  0.375 0.5 0  0.5 0.5 0  0.625 0.5 0  0.75 0.5 0  0.875 0.5 0  1 0.5 0  0 0.625 0  0.125 0.625 0  0.25 0.625 0  0.375 0.625 0  0.5 0.625 0  0.625 0.625 0  0.75 0.625 0  0.875 0.625 0  1 0.625 0  0 0.75 0  0.125 0.75 0  0.25 0.75 0  0.375 0.75 0  0.5 0.75 0  0.625 0.75 0  0.75 0.75 0  0.875 0.75 0  1 0.75 0  0 0.875 0  0.125 0.875 0  0.25 0.875 0  0.375 0.875 0  0.5 0.875 0  0.625 0.875 0  0.75 0.875 0  0.875 0.875 0  1 0.875 0  0 1 0  0.125 1 0  0.25 1 0  0.375 1 0  0.5 1 0  0.625 1 0  0.75 1 0  0.875 1 0  1 1 0  </DataArray>
</Points>
<Cells>
<DataArray  type="UInt32"  Name="connectivity"  format="ascii">0 1 10  0 9 10  1 2 11  1 10 11  2 3 12  2 11 12  3 4 13  3 12 13  4 5 14  4 13 14  5 6 15  5 14 15  6 7 16  6 15 16  7 8 17  7 16 17  9 10 19  9 18 19  10 11 20  10 19 20  11 12 21  11 20 21  12 13 22  12 21 22  13 14 23  13 22 23  14 15 24  14 23 24  15 16 25  15 24 25  16 17 26  16 25 26  18 19 28  18 27 28  19 20 29  19 28 29  20 21 30  20 29 30  21 22 31  21 30 31  22 23 32  22 31 32  23 24 33  23 32 33  24 25 34  24 33 34  25 26 35  25 34 35  27 28 37  27 36 37  28 29 38  28 37 38  29 30 39  29 38 39  30 31 40  30 39 40  31 32 41  31 40 41  32 33 42  32 41 42  33 34 43  33 42 43  34 35 44  34 43 44  36 37 46  36 45 46  37 38 47  37 46 47  38 39 48  38 47 48  39 40 49  39 48 49  40 41 50  40 49 50  41 42 51  41 50 51  42 43 52  42 51 52  43 44 53  43 52 53  45 46 55  45 54 55  46 47 56  46 55 56  47 48 57  47 56 57  48 49 58  48 57 58  49 50 59  49 58 59  50 51 60  50 59 60  51 52 61  51 60 61  52 53 62  52 61 62  54 55 64  54 63 64  55 56 65  55 64 65  56 57 66  56 65 66  57 58 67  57 66 67  58 59 68  58 67 68  59 60 69  59 68 69  60 61 70  60 69 70  61 62 71  61 70 71  63 64 73  63 72 73  64 65 74  64 73 74  65 66 75  65 74 75  66 67 76  66 75 76  67 68 77  67 76 77  68 69 78  68 77 78  69 70 79  69 78 79  70 71 80  70 79 80  </DataArray>
<DataArray  type="UInt32"  Name="offsets"  format="ascii">3 6 9 12 15 18 21 24 27 30 33 36 39 42 45 48 51 54 57 60 63 66 69 72 75 78 81 84 87 90 93 96 99 102 105 108 111 114 117 120 123 126 129 132 135 138 141 144 147 150 153 156 159 162 165 168 171 174 177 180 183 186 189 192 195 198 201 204 207 210 213 216 219 222 225 228 231 234 237 240 243 246 249 252 255 258 261 264 267 270 273 276 279 282 285 288 291 294 297 300 303 306 309 312 315 318 321 324 327 330 333 336 339 342 345 348 351 354 357 360 363 366 369 372 375 378 381 384 </DataArray>
<DataArray  type="UInt8"  Name="types"  format="ascii">5 5 5 5 5 5 5 5 5 5 5 5 5 5 5 5 5 5 5 5 5 5 5 5 5 5 5 5 5 5 5 5 5 5 5 5 5 5 5 5 5 5 5 5 5 5 5 5 5 5 5 5 5 5 5 5 5 5 5 5 5 5 5 5 5 5 5 5 5 5 5 5 5 5 5 5 5 5 5 5 5 5 5 5 5 5 5 5 5 5 5 5 5 5 5 5 5 5 5 5 5 5 5 5 5 5 5 5 5 5 5 5 5 5 5 5 5 5 5 5 5 5 5 5 5 5 5 5 </DataArray>
</Cells>
<CellData  Scalars="f_38994"> 
<DataArray  type="Float64"  Name="f_38994"  format="ascii">1.3073803272491801e-40   1.3073803272491801e-40   1.7856902030720521e-41   1.7856902030720521e-41   7.6800622394625629e-40   7.6800622394625629e-40   1.0267718667664289e-40   1.0267718667664289e-40   1.4285521624576417e-40   1.4285521624576417e-40   9.7575214667865621e-41   9.7575214667865621e-41   7.1427608122882085e-41   7.1427608122882085e-41   2.2002254287852083e-40   2.2002254287852083e-40   6.7043100927839120e-40   6.7043100927839120e-40   1.6915428758475844e-39   1.6915428758475844e-39   3.0133223233168481e-39   3.0133223233168481e-39   2.5943527664632521e-39   2.5943527664632521e-39   3.1071009533453715e-39   3.1071009533453715e-39   9.1644172207661993e-40   9.1644172207661993e-40   1.2754930021943221e-40   1.2754930021943221e-40   1.7239085107782649e-41   1.7239085107782649e-41   1.7920676680830219e-40   1.7920676680830219e-40   1.2576361001636017e-39   1.2576361001636017e-39   1.1658006040056100e-39   1.1658006040056100e-39   4.1612959196589742e-39   4.1612959196589742e-39   2.3435988140631126e-39   2.3435988140631126e-39   1.4676141356498429e-39   1.4676141356498429e-39   1.9929578159286308e-41   1.9929578159286308e-41   4.9106480584481421e-41   4.9106480584481421e-41   2.4744564242569864e-40   2.4744564242569864e-40   4.0815776070218359e-40   4.0815776070218359e-40   5.3927844132775930e-39   5.3927844132775930e-39   3.7473984404469206e-39   3.7473984404469206e-39   1.0344248247795961e-39   1.0344248247795961e-39   7.1427608122882085e-41   7.1427608122882085e-41   1.4540620225015277e-40   1.4540620225015277e-40   8.1631552140436567e-41   8.1631552140436567e-41   1.8367099231598246e-40   1.8367099231598246e-40   7.0407213721126549e-40   7.0407213721126549e-40   1.1122298979134489e-39   1.1122298979134489e-39   8.2269298641533783e-40   8.2269298641533783e-40   2.3979268441253257e-40   2.3979268441253257e-40   2.4094859994577148e-40   2.4094859994577148e-40   2.5509860043886475e-40   2.5509860043886475e-40   1.8367099231598246e-40   1.8367099231598246e-40   8.1631552140436567e-41   8.1631552140436567e-41   2.5063437493118446e-40   2.5063437493118446e-40   4.6714931205367070e-41   4.6714931205367070e-41   8.0037185887693761e-41   8.0037185887693761e-41   2.8826141849591710e-40   2.8826141849591710e-40   3.4948508260124456e-40   3.4948508260124456e-40   5.1019720087772949e-41   5.1019720087772949e-41   1.3265127222820951e-40   1.3265127222820951e-40   1.0203944017554571e-40   1.0203944017554571e-40   1.0177039087039549e-40   1.0177039087039549e-40   5.0601198946427879e-40   5.0601198946427879e-40   5.0206593298874051e-40   5.0206593298874051e-40   1.8622197832037122e-40   1.8622197832037122e-40   8.1631552140436620e-40   8.1631552140436620e-40   1.9642592233792568e-40   1.9642592233792568e-40   1.2754930021943237e-41   1.2754930021943237e-41   1.1479437019748914e-40   1.1479437019748914e-40   1.1220352503678188e-40   1.1220352503678188e-40   4.9106480584481421e-41   4.9106480584481421e-41   3.4948508260124452e-40   3.4948508260124452e-40   1.0714141218432305e-40   1.0714141218432305e-40   1.7601803430281637e-40   1.7601803430281637e-40   3.0420508102334613e-40   3.0420508102334613e-40   9.8252820325281446e-41   9.8252820325281446e-41   </DataArray> 
</CellData> 
</Piece>
</UnstructuredGrid>
</VTKFile>