<?xml version="1.0"?>
<VTKFile type="UnstructuredGrid"  version="0.1"  >
<UnstructuredGrid>
<Piece  NumberOfPoints="25" NumberOfCells="32">
<Points>
<DataArray  type="Float64"  NumberOfComponents="3"  format="ascii">0 0 0  0.25 0 0  0.5 0 0  0.75 0 0  1 0 0  0 0.25 0  0.25 0.25 0  0.5 0.25 0  0.75 0.25 0  1 0.25 0  0 0.5 0  0.25 0.5 0  0.5 0.5 0  0.75 0.5 0  1 0.5 0  0 0.75 0  0.25 0.75 0  0.5 0.75 0  0.75 0.75 0  1 0.75 0  0 1 0  0.25 1 0  0.5 1 0  0.75 1 0  1 1 0  </DataArray>
</Points>
<Cells>
<DataArray  type="UInt32"  Name="connectivity"  format="ascii">0 1 6  0 5 6  1 2 7  1 6 7  2 3 8  2 7 8  3 4 9  3 8 9  5 6 11  5 10 11  6 7 12  6 11 12  7 8 13  7 12 13  8 9 14  8 13 14  10 11 16  10 15 16  11 12 17  11 16 17  12 13 18  12 17 18  13 14 19  13 18 19  15 16 21  15 20 21  16 17 22  16 21 22  17 18 23  17 22 23  18 19 24  18 23 24  </DataArray>
<DataArray  type="UInt32"  Name="offsets"  format="ascii">3 6 9 12 15 18 21 24 27 30 33 36 39 42 45 48 51 54 57 60 63 66 69 72 75 78 81 84 87 90 93 96 </DataArray>
<DataArray  type="UInt8"  Name="types"  format="ascii">5 5 5 5 5 5 5 5 5 5 5 5 5 5 5 5 5 5 5 5 5 5 5 5 5 5 5 5 5 5 5 5 </DataArray>
</Cells>
<CellData  Scalars="f_87363"> 
<DataArray  type="Float64"  Name="f_87363"  format="ascii">1.0510062338081223e-39   1.0510062338081223e-39   2.1938479637742345e-38   2.1938479637742345e-38   7.4633825722893524e-40   6.0203269703572015e-40   2.0535437335328611e-40   3.4965993354650117e-40   2.9387358770557194e-39   2.9387358770557194e-39   2.6938412206344103e-38   2.6938412206344103e-38   2.5841488224456988e-39   2.5841488224456988e-39   8.2141749341314445e-40   8.2141749341314445e-40   1.2550851141592141e-39   1.2550851141592141e-39   1.9030355592739306e-38   1.9030355592739306e-38   2.4826195794710315e-38   2.4826195794710315e-38   4.5713669198644534e-39   4.5713669198644534e-39   8.4820284645922516e-40   8.4820284645922516e-40   2.1173183836425766e-40   2.1173183836425766e-40   6.9531124879564304e-39   6.9386819319371087e-39   1.6868394954019928e-38   1.6882825510039248e-38   </DataArray> 
</CellData> 
</Piece>
</UnstructuredGrid>
</VTKFile>