<?xml version="1.0"?>
<VTKFile type="UnstructuredGrid"  version="0.1"  >
<UnstructuredGrid>
<Piece  NumberOfPoints="1089" NumberOfCells="2048">
<Points>
<DataArray  type="Float64"  NumberOfComponents="3"  format="ascii">0 0 0  0.03125 0 0  0.0625 0 0  0.09375 0 0  0.125 0 0  0.15625 0 0  0.1875 0 0  0.21875 0 0  0.25 0 0  0.28125 0 0  0.3125 0 0  0.34375 0 0  0.375 0 0  0.40625 0 0  0.4375 0 0  0.46875 0 0  0.5 0 0  0.53125 0 0  0.5625 0 0  0.59375 0 0  0.625 0 0  0.65625 0 0  0.6875 0 0  0.71875 0 0  0.75 0 0  0.78125 0 0  0.8125 0 0  0.84375 0 0  0.875 0 0  0.90625 0 0  0.9375 0 0  0.96875 0 0  1 0 0  0 0.03125 0  0.03125 0.03125 0  0.0625 0.03125 0  0.09375 0.03125 0  0.125 0.03125 0  0.15625 0.03125 0  0.1875 0.03125 0  0.21875 0.03125 0  0.25 0.03125 0  0.28125 0.03125 0  0.3125 0.03125 0  0.34375 0.03125 0  0.375 0.03125 0  0.40625 0.03125 0  0.4375 0.03125 0  0.46875 0.03125 0  0.5 0.03125 0  0.53125 0.03125 0  0.5625 0.03125 0  0.59375 0.03125 0  0.625 0.03125 0  0.65625 0.03125 0  0.6875 0.03125 0  0.71875 0.03125 0  0.75 0.03125 0  0.78125 0.03125 0  0.8125 0.03125 0  0.84375 0.03125 0  0.875 0.03125 0  0.90625 0.03125 0  0.9375 0.03125 0  0.96875 0.03125 0  1 0.03125 0  0 0.0625 0  0.03125 0.0625 0  0.0625 0.0625 0  0.09375 0.0625 0  0.125 0.0625 0  0.15625 0.0625 0  0.1875 0.0625 0  0.21875 0.0625 0  0.25 0.0625 0  0.28125 0.0625 0  0.3125 0.0625 0  0.34375 0.0625 0  0.375 0.0625 0  0.40625 0.0625 0  0.4375 0.0625 0  0.46875 0.0625 0  0.5 0.0625 0  0.53125 0.0625 0  0.5625 0.0625 0  0.59375 0.0625 0  0.625 0.0625 0  0.65625 0.0625 0  0.6875 0.0625 0  0.71875 0.0625 0  0.75 0.0625 0  0.78125 0.0625 0  0.8125 0.0625 0  0.84375 0.0625 0  0.875 0.0625 0  0.90625 0.0625 0  0.9375 0.0625 0  0.96875 0.0625 0  1 0.0625 0  0 0.09375 0  0.03125 0.09375 0  0.0625 0.09375 0  0.09375 0.09375 0  0.125 0.09375 0  0.15625 0.09375 0  0.1875 0.09375 0  0.21875 0.09375 0  0.25 0.09375 0  0.28125 0.09375 0  0.3125 0.09375 0  0.34375 0.09375 0  0.375 0.09375 0  0.40625 0.09375 0  0.4375 0.09375 0  0.46875 0.09375 0  0.5 0.09375 0  0.53125 0.09375 0  0.5625 0.09375 0  0.59375 0.09375 0  0.625 0.09375 0  0.65625 0.09375 0  0.6875 0.09375 0  0.71875 0.09375 0  0.75 0.09375 0  0.78125 0.09375 0  0.8125 0.09375 0  0.84375 0.09375 0  0.875 0.09375 0  0.90625 0.09375 0  0.9375 0.09375 0  0.96875 0.09375 0  1 0.09375 0  0 0.125 0  0.03125 0.125 0  0.0625 0.125 0  0.09375 0.125 0  0.125 0.125 0  0.15625 0.125 0  0.1875 0.125 0  0.21875 0.125 0  0.25 0.125 0  0.28125 0.125 0  0.3125 0.125 0  0.34375 0.125 0  0.375 0.125 0  0.40625 0.125 0  0.4375 0.125 0  0.46875 0.125 0  0.5 0.125 0  0.53125 0.125 0  0.5625 0.125 0  0.59375 0.125 0  0.625 0.125 0  0.65625 0.125 0  0.6875 0.125 0  0.71875 0.125 0  0.75 0.125 0  0.78125 0.125 0  0.8125 0.125 0  0.84375 0.125 0  0.875 0.125 0  0.90625 0.125 0  0.9375 0.125 0  0.96875 0.125 0  1 0.125 0  0 0.15625 0  0.03125 0.15625 0  0.0625 0.15625 0  0.09375 0.15625 0  0.125 0.15625 0  0.15625 0.15625 0  0.1875 0.15625 0  0.21875 0.15625 0  0.25 0.15625 0  0.28125 0.15625 0  0.3125 0.15625 0  0.34375 0.15625 0  0.375 0.15625 0  0.40625 0.15625 0  0.4375 0.15625 0  0.46875 0.15625 0  0.5 0.15625 0  0.53125 0.15625 0  0.5625 0.15625 0  0.59375 0.15625 0  0.625 0.15625 0  0.65625 0.15625 0  0.6875 0.15625 0  0.71875 0.15625 0  0.75 0.15625 0  0.78125 0.15625 0  0.8125 0.15625 0  0.84375 0.15625 0  0.875 0.15625 0  0.90625 0.15625 0  0.9375 0.15625 0  0.96875 0.15625 0  1 0.15625 0  0 0.1875 0  0.03125 0.1875 0  0.0625 0.1875 0  0.09375 0.1875 0  0.125 0.1875 0  0.15625 0.1875 0  0.1875 0.1875 0  0.21875 0.1875 0  0.25 0.1875 0  0.28125 0.1875 0  0.3125 0.1875 0  0.34375 0.1875 0  0.375 0.1875 0  0.40625 0.1875 0  0.4375 0.1875 0  0.46875 0.1875 0  0.5 0.1875 0  0.53125 0.1875 0  0.5625 0.1875 0  0.59375 0.1875 0  0.625 0.1875 0  0.65625 0.1875 0  0.6875 0.1875 0  0.71875 0.1875 0  0.75 0.1875 0  0.78125 0.1875 0  0.8125 0.1875 0  0.84375 0.1875 0  0.875 0.1875 0  0.90625 0.1875 0  0.9375 0.1875 0  0.96875 0.1875 0  1 0.1875 0  0 0.21875 0  0.03125 0.21875 0  0.0625 0.21875 0  0.09375 0.21875 0  0.125 0.21875 0  0.15625 0.21875 0  0.1875 0.21875 0  0.21875 0.21875 0  0.25 0.21875 0  0.28125 0.21875 0  0.3125 0.21875 0  0.34375 0.21875 0  0.375 0.21875 0  0.40625 0.21875 0  0.4375 0.21875 0  0.46875 0.21875 0  0.5 0.21875 0  0.53125 0.21875 0  0.5625 0.21875 0  0.59375 0.21875 0  0.625 0.21875 0  0.65625 0.21875 0  0.6875 0.21875 0  0.71875 0.21875 0  0.75 0.21875 0  0.78125 0.21875 0  0.8125 0.21875 0  0.84375 0.21875 0  0.875 0.21875 0  0.90625 0.21875 0  0.9375 0.21875 0  0.96875 0.21875 0  1 0.21875 0  0 0.25 0  0.03125 0.25 0  0.0625 0.25 0  0.09375 0.25 0  0.125 0.25 0  0.15625 0.25 0  0.1875 0.25 0  0.21875 0.25 0  0.25 0.25 0  0.28125 0.25 0  0.3125 0.25 0  0.34375 0.25 0  0.375 0.25 0  0.40625 0.25 0  0.4375 0.25 0  0.46875 0.25 0  0.5 0.25 0  0.53125 0.25 0  0.5625 0.25 0  0.59375 0.25 0  0.625 0.25 0  0.65625 0.25 0  0.6875 0.25 0  0.71875 0.25 0  0.75 0.25 0  0.78125 0.25 0  0.8125 0.25 0  0.84375 0.25 0  0.875 0.25 0  0.90625 0.25 0  0.9375 0.25 0  0.96875 0.25 0  1 0.25 0  0 0.28125 0  0.03125 0.28125 0  0.0625 0.28125 0  0.09375 0.28125 0  0.125 0.28125 0  0.15625 0.28125 0  0.1875 0.28125 0  0.21875 0.28125 0  0.25 0.28125 0  0.28125 0.28125 0  0.3125 0.28125 0  0.34375 0.28125 0  0.375 0.28125 0  0.40625 0.28125 0  0.4375 0.28125 0  0.46875 0.28125 0  0.5 0.28125 0  0.53125 0.28125 0  0.5625 0.28125 0  0.59375 0.28125 0  0.625 0.28125 0  0.65625 0.28125 0  0.6875 0.28125 0  0.71875 0.28125 0  0.75 0.28125 0  0.78125 0.28125 0  0.8125 0.28125 0  0.84375 0.28125 0  0.875 0.28125 0  0.90625 0.28125 0  0.9375 0.28125 0  0.96875 0.28125 0  1 0.28125 0  0 0.3125 0  0.03125 0.3125 0  0.0625 0.3125 0  0.09375 0.3125 0  0.125 0.3125 0  0.15625 0.3125 0  0.1875 0.3125 0  0.21875 0.3125 0  0.25 0.3125 0  0.28125 0.3125 0  0.3125 0.3125 0  0.34375 0.3125 0  0.375 0.3125 0  0.40625 0.3125 0  0.4375 0.3125 0  0.46875 0.3125 0  0.5 0.3125 0  0.53125 0.3125 0  0.5625 0.3125 0  0.59375 0.3125 0  0.625 0.3125 0  0.65625 0.3125 0  0.6875 0.3125 0  0.71875 0.3125 0  0.75 0.3125 0  0.78125 0.3125 0  0.8125 0.3125 0  0.84375 0.3125 0  0.875 0.3125 0  0.90625 0.3125 0  0.9375 0.3125 0  0.96875 0.3125 0  1 0.3125 0  0 0.34375 0  0.03125 0.34375 0  0.0625 0.34375 0  0.09375 0.34375 0  0.125 0.34375 0  0.15625 0.34375 0  0.1875 0.34375 0  0.21875 0.34375 0  0.25 0.34375 0  0.28125 0.34375 0  0.3125 0.34375 0  0.34375 0.34375 0  0.375 0.34375 0  0.40625 0.34375 0  0.4375 0.34375 0  0.46875 0.34375 0  0.5 0.34375 0  0.53125 0.34375 0  0.5625 0.34375 0  0.59375 0.34375 0  0.625 0.34375 0  0.65625 0.34375 0  0.6875 0.34375 0  0.71875 0.34375 0  0.75 0.34375 0  0.78125 0.34375 0  0.8125 0.34375 0  0.84375 0.34375 0  0.875 0.34375 0  0.90625 0.34375 0  0.9375 0.34375 0  0.96875 0.34375 0  1 0.34375 0  0 0.375 0  0.03125 0.375 0  0.0625 0.375 0  0.09375 0.375 0  0.125 0.375 0  0.15625 0.375 0  0.1875 0.375 0  0.21875 0.375 0  0.25 0.375 0  0.28125 0.375 0  0.3125 0.375 0  0.34375 0.375 0  0.375 0.375 0  0.40625 0.375 0  0.4375 0.375 0  0.46875 0.375 0  0.5 0.375 0  0.53125 0.375 0  0.5625 0.375 0  0.59375 0.375 0  0.625 0.375 0  0.65625 0.375 0  0.6875 0.375 0  0.71875 0.375 0  0.75 0.375 0  0.78125 0.375 0  0.8125 0.375 0  0.84375 0.375 0  0.875 0.375 0  0.90625 0.375 0  0.9375 0.375 0  0.96875 0.375 0  1 0.375 0  0 0.40625 0  0.03125 0.40625 0  0.0625 0.40625 0  0.09375 0.40625 0  0.125 0.40625 0  0.15625 0.40625 0  0.1875 0.40625 0  0.21875 0.40625 0  0.25 0.40625 0  0.28125 0.40625 0  0.3125 0.40625 0  0.34375 0.40625 0  0.375 0.40625 0  0.40625 0.40625 0  0.4375 0.40625 0  0.46875 0.40625 0  0.5 0.40625 0  0.53125 0.40625 0  0.5625 0.40625 0  0.59375 0.40625 0  0.625 0.40625 0  0.65625 0.40625 0  0.6875 0.40625 0  0.71875 0.40625 0  0.75 0.40625 0  0.78125 0.40625 0  0.8125 0.40625 0  0.84375 0.40625 0  0.875 0.40625 0  0.90625 0.40625 0  0.9375 0.40625 0  0.96875 0.40625 0  1 0.40625 0  0 0.4375 0  0.03125 0.4375 0  0.0625 0.4375 0  0.09375 0.4375 0  0.125 0.4375 0  0.15625 0.4375 0  0.1875 0.4375 0  0.21875 0.4375 0  0.25 0.4375 0  0.28125 0.4375 0  0.3125 0.4375 0  0.34375 0.4375 0  0.375 0.4375 0  0.40625 0.4375 0  0.4375 0.4375 0  0.46875 0.4375 0  0.5 0.4375 0  0.53125 0.4375 0  0.5625 0.4375 0  0.59375 0.4375 0  0.625 0.4375 0  0.65625 0.4375 0  0.6875 0.4375 0  0.71875 0.4375 0  0.75 0.4375 0  0.78125 0.4375 0  0.8125 0.4375 0  0.84375 0.4375 0  0.875 0.4375 0  0.90625 0.4375 0  0.9375 0.4375 0  0.96875 0.4375 0  1 0.4375 0  0 0.46875 0  0.03125 0.46875 0  0.0625 0.46875 0  0.09375 0.46875 0  0.125 0.46875 0  0.15625 0.46875 0  0.1875 0.46875 0  0.21875 0.46875 0  0.25 0.46875 0  0.28125 0.46875 0  0.3125 0.46875 0  0.34375 0.46875 0  0.375 0.46875 0  0.40625 0.46875 0  0.4375 0.46875 0  0.46875 0.46875 0  0.5 0.46875 0  0.53125 0.46875 0  0.5625 0.46875 0  0.59375 0.46875 0  0.625 0.46875 0  0.65625 0.46875 0  0.6875 0.46875 0  0.71875 0.46875 0  0.75 0.46875 0  0.78125 0.46875 0  0.8125 0.46875 0  0.84375 0.46875 0  0.875 0.46875 0  0.90625 0.46875 0  0.9375 0.46875 0  0.96875 0.46875 0  1 0.46875 0  0 0.5 0  0.03125 0.5 0  0.0625 0.5 0  0.09375 0.5 0  0.125 0.5 0  0.15625 0.5 0  0.1875 0.5 0  0.21875 0.5 0  0.25 0.5 0  0.28125 0.5 0  0.3125 0.5 0  0.34375 0.5 0  0.375 0.5 0  0.40625 0.5 0  0.4375 0.5 0  0.46875 0.5 0  0.5 0.5 0  0.53125 0.5 0  0.5625 0.5 0  0.59375 0.5 0  0.625 0.5 0  0.65625 0.5 0  0.6875 0.5 0  0.71875 0.5 0  0.75 0.5 0  0.78125 0.5 0  0.8125 0.5 0  0.84375 0.5 0  0.875 0.5 0  0.90625 0.5 0  0.9375 0.5 0  0.96875 0.5 0  1 0.5 0  0 0.53125 0  0.03125 0.53125 0  0.0625 0.53125 0  0.09375 0.53125 0  0.125 0.53125 0  0.15625 0.53125 0  0.1875 0.53125 0  0.21875 0.53125 0  0.25 0.53125 0  0.28125 0.53125 0  0.3125 0.53125 0  0.34375 0.53125 0  0.375 0.53125 0  0.40625 0.53125 0  0.4375 0.53125 0  0.46875 0.53125 0  0.5 0.53125 0  0.53125 0.53125 0  0.5625 0.53125 0  0.59375 0.53125 0  0.625 0.53125 0  0.65625 0.53125 0  0.6875 0.53125 0  0.71875 0.53125 0  0.75 0.53125 0  0.78125 0.531
[...]
<CellData  Scalars="f_59192"> 
<DataArray  type="Float64"  Name="f_59192"  format="ascii">3.3349746210695305e-09   3.3128707988226534e-09   3.1835805915080721e-09   3.2663273191908187e-09   2.9783174196556131e-09   3.0768535141016411e-09   2.7262286706713849e-09   2.8369231778198491e-09   2.4368594552475900e-09   2.5564300992333728e-09   2.1212853008835335e-09   2.2462983588321179e-09   1.7916172409466850e-09   1.9184680713205316e-09   1.4605180937507426e-09   1.5855358233250089e-09   1.1407096807709939e-09   1.2602919663218646e-09   8.4448156435523919e-10   9.5523264728176419e-10   5.8321777454238589e-10   6.8207967815391610e-10   3.6695890514005794e-10   4.5132964542501031e-10   2.0401609059268485e-10   2.7185015481714590e-10   1.0065155957347705e-10   1.5053880387397158e-10   6.0837976790872930e-11   9.2057965737269051e-11   8.6105791076565486e-11   9.8655541882789474e-11   1.7548444232570985e-10   1.7007854469266143e-10   3.2553968116840644e-10   3.0358281210310087e-10   5.3050556653517913e-10   4.9403846935772164e-10   7.8250607129225008e-10   7.3412707799797688e-10   1.0718577874501162e-09   1.0146228910426483e-09   1.3874421126778033e-09   1.3247474011615860e-09   1.7171326429379483e-09   1.6525835489334056e-09   2.0482613973569079e-09   1.9855336576123515e-09   2.3681060535451770e-09   2.3108034621819478e-09   2.6643796671175947e-09   2.6158935600355182e-09   2.9257045792605134e-09   2.8890792380764610e-09   3.1420542907936858e-09   3.1198598525143478e-09   3.3051551966315000e-09   3.2993591390561674e-09   3.4089096821838360e-09   3.4206588415491205e-09   3.4497164562991318e-09   3.4789414605364029e-09   3.3663196091450407e-09   3.4730219505781520e-09   3.2290604804307565e-09   3.0951048349237703e-09   3.0629546488072071e-09   3.0333456915033699e-09   2.8459474288542928e-09   2.8350730215167792e-09   2.5871626671195181e-09   2.5946159961999586e-09   2.2966580657060844e-09   2.3211797972560086e-09   1.9856149282847938e-09   2.0253103686691352e-09   1.6659875891852709e-09   1.7184051525274212e-09   1.3500578903278236e-09   1.4122688453139664e-09   1.0499657366316729e-09   1.1186685017362407e-09   7.7724291686051920e-10   8.4888690253079837e-10   5.4236985040789094e-10   6.1329109407650628e-10   3.5437268637513401e-10   4.2093460206983252e-10   2.2047632454117482e-10   2.7920959212500998e-10   1.4582670078130743e-10   1.9356272698819880e-10   1.3329299965467379e-10   1.6728577125582739e-10   1.8335738413716153e-10   2.0138902779437019e-10   2.9409647220512541e-10   2.9456247364124436e-10   4.6125526785671045e-10   4.4322608325356945e-10   6.7841070431304643e-10   6.4166739744650763e-10   9.3721851603444529e-10   8.8226104325891107e-10   1.2277339557763105e-09   1.1557617591516352e-09   1.5387940348464692e-09   1.4516596503391246e-09   1.8584465967535757e-09   1.7585839970881338e-09   2.1744097185664862e-09   2.0647400523644834e-09   2.4745437261032629e-09   2.3583619596032910e-09   2.7473175016157294e-09   2.6281642305439848e-09   2.9822506188525847e-09   2.8637741394916303e-09   3.1703126731628501e-09   3.0561278322306872e-09   3.3042593907139593e-09   3.1978134582561704e-09   3.3789108258866058e-09   3.2833477814409928e-09   3.3911576043860782e-09   3.3092752207181447e-09   3.2788370420707129e-09   3.2759640077575549e-09   2.9757572308051684e-09   2.8289750735110716e-09   2.7998600817151096e-09   2.7530253592869115e-09   2.5813059786543934e-09   2.5524268279869979e-09   2.3293891407665097e-09   2.3185467782406106e-09   2.0537097529081613e-09   2.0602841472557426e-09   1.7648773160301320e-09   1.7875516892536051e-09   1.4739997139231816e-09   1.5108181509558924e-09   1.1922577064848525e-09   1.2407168448758265e-09   9.3047892604953611e-10   9.8762795148910832e-10   6.9872333142626812e-10   7.6127756815797736e-10   5.0589712638267364e-10   5.7036405251855748e-10   3.5941062459400693e-10   4.2222400762199278e-10   2.6489347285061106e-10   3.2255044123757850e-10   2.2597827508149246e-10   2.7517398439734046e-10   2.4416096546428404e-10   2.8191564272412383e-10   3.1874330449102462e-10   3.4251677305373230e-10   4.4685970750848014e-10   4.5464898791213381e-10   6.2358737179733286e-10   6.1400360754431531e-10   8.4213546627823818e-10   8.1445721700367339e-10   1.0941061074325847e-09   1.0483069576305899e-09   1.3698170810244776e-09   1.3065664981033457e-09   1.6586738832158412e-09   1.5793112904344216e-09   1.9495767321344870e-09   1.8560598094836173e-09   2.2313467999254234e-09   2.1261760698263213e-09   2.4931550554047545e-09   2.3792778626675773e-09   2.7249367399997662e-09   2.6056348882753329e-09   2.9177744447968331e-09   2.7965412909310614e-09   3.0642327349654447e-09   2.9446480683951580e-09   3.1586275108065782e-09   3.0442423939730018e-09   3.1972526901268247e-09   3.0914671142459272e-09   3.1783499837344336e-09   3.0843865379981313e-09   3.0443328572706318e-09   3.0248874946042210e-09   2.6774103190513565e-09   2.5237525466071811e-09   2.4980354795491766e-09   2.4369744735719739e-09   2.2849866418785089e-09   2.2405572573199999e-09   2.0478188620217592e-09   2.0205807098009304e-09   1.7955132361081707e-09   1.7853459662678106e-09   1.5377543948637787e-09   1.5438930776672446e-09   1.2844476235460044e-09   1.3054818073332015e-09   1.0453283405910507e-09   1.0792645254506811e-09   8.2958623179467575e-10   8.7393066916768331e-10   6.4551228828663158e-10   6.9736948527235617e-10   5.0018045542731911e-10   5.5636542770932153e-10   3.9917590793286297e-10   4.5633694468344169e-10   3.4638044483690368e-10   4.0112807379529394e-10   3.4382330554549790e-10   3.9286063124861424e-10   3.9160316895892375e-10   4.3185261324586412e-10   4.8788434458147959e-10   5.1660593032823344e-10   6.2896730430695390e-10   6.4386394131272639e-10   8.0943084168803015e-10   8.0873657156751715e-10   1.0223403888273241e-09   1.0048882014063655e-09   1.2595144728983958e-09   1.2247810950665380e-09   1.5118390494431969e-09   1.4599650020711915e-09   1.7696175908089878e-09   1.7014017812855483e-09   2.0229433997673343e-09   1.9398125420327015e-09   2.2620797058041390e-09   2.1660339186404496e-09   2.4778327041943152e-09   2.3713697321910911e-09   2.6619028203510309e-09   2.5479244732108574e-09   2.8072001577958096e-09   2.6889057919282155e-09   2.9081117096550551e-09   2.7888845863133432e-09   2.9607119318643918e-09   2.8440033704281909e-09   2.9629488773895077e-09   2.8521303052517985e-09   2.9145110122845941e-09   2.8128729581485932e-09   2.7620255930874457e-09   2.7294410142279453e-09   2.3466988603880768e-09   2.1909683647326970e-09   2.1695983568543101e-09   2.0974180436593034e-09   1.9687715605244204e-09   1.9113452196678885e-09   1.7535585804561876e-09   1.7119936932350263e-09   1.5321219262218904e-09   1.5067711017898955e-09   1.3129521881189664e-09   1.3035678954651548e-09   1.1044643189822220e-09   1.1101782537923003e-09   9.1466792876885590e-10   9.3402350627529790e-10   7.5085597820306046e-10   7.8186725720218721e-10   6.1932340575302962e-10   6.5955380075072641e-10   5.2512490135012797e-10   5.7178216419139155e-10   4.7188056742460975e-10   5.2192476234360844e-10   4.6163676345675145e-10   5.1189741345901352e-10   4.9478743956809455e-10   5.4208552190615132e-10   5.7005897437685018e-10   6.1132916257568738e-10   6.8455909843761545e-10   7.1696759232925104e-10   8.3388802103002988e-10   8.5494145555618830e-10   1.0123074848019647e-09   1.0199487437415186e-09   1.2129612426687945e-09   1.2056485066629072e-09   1.4281384686450153e-09   1.4049044771725642e-09   1.6495699540084115e-09   1.6100592355814634e-09   1.8687456640455785e-09   1.8132283618775429e-09   2.0772413872314231e-09   2.0066032521296214e-09   2.2670418312034698e-09   2.1827509410622903e-09   2.4308476395562358e-09   2.3348993974880184e-09   2.5623544624961242e-09   2.4571973541937934e-09   2.6564935414954349e-09   2.5449388140596159e-09   2.7096256345270983e-09   2.5947439693231886e-09   2.7196835514320003e-09   2.6046903023751864e-09   2.6862855959400363e-09   2.5743935807045086e-09   2.6104175076776301e-09   2.5049614187961781e-09   2.4435207898530723e-09   2.4007446752003601e-09   1.9965295556529699e-09   1.8433452568006350e-09   1.8272830564304004e-09   1.7474153172270685e-09   1.6448551128961231e-09   1.5774572181779619e-09   1.4579591117232961e-09   1.4046306329049436e-09   1.2736984922470572e-09   1.2352377636280228e-09   1.0991405067924932e-09   1.0757866100014019e-09   9.4098416158340517e-10   9.3239394897355131e-10   8.0530287468412877e-10   8.1056164080851519e-10   6.9730877987040829e-10   7.1496585496388820e-10   6.2115116640492531e-10   6.4927690177659236e-10   5.7975641872435416e-10   6.1601736838554505e-10   5.7471528250255793e-10   6.1646453057310979e-10   6.0622160537164461e-10   6.5060085716527294e-10   6.7306482176277732e-10   7.1711444510756116e-10   7.7267643428978139e-10   8.1344929898225776e-10   9.0122868907093344e-10   9.3590347539745399e-10   1.0537816438128077e-09   1.0797712923969151e-09   1.2244729690761083e-09   1.2395241222578977e-09   1.4067431786682148e-09   1.4090228089345718e-09   1.5935876196155875e-09   1.5817535382474319e-09   1.7778255167151716e-09   1.7510780875805555e-09   1.9523757038152834e-09   1.9104888291867004e-09   2.1105284113982962e-09   2.0538586795606303e-09   2.2462026379120883e-09   2.1756763881549847e-09   2.3541792298580214e-09   2.2712581410420237e-09   2.4303008616286399e-09   2.3369274077768635e-09   2.4716316910855670e-09   2.3701562651003062e-09   2.4765715848868038e-09   2.3696630645000100e-09   2.4449209847531896e-09   2.3354631330519410e-09   2.3779069893518785e-09   2.2688745063170903e-09   2.2777069703348613e-09   2.1724141163385612e-09   2.1012714024344696e-09   2.0513803069913182e-09   1.6403771315496074e-09   1.4942165403824039e-09   1.4842780295147406e-09   1.4004125892993432e-09   1.3256779987924287e-09   1.2517309181153074e-09   1.1723602526972494e-09   1.1103024621682906e-09   1.0301551137526922e-09   9.8117085125216750e-10   9.0452008069851571e-10   8.6928903489453907e-10   8.0027569474497908e-10   7.7894772943286285e-10   7.2142342960457991e-10   7.1361210423516683e-10   6.7099103602640203e-10   6.7578818844680369e-10   6.5091535564211668e-10   6.6692645098097520e-10   6.6196733084990982e-10   6.8736564128344195e-10   7.0372205629959368e-10   7.3631933557169237e-10   7.7457493255296308e-10   8.1190582558631519e-10   8.7180323405719636e-10   9.1122021039878428e-10   9.9167068514605135e-10   1.0304458921521382e-09   1.1295710029432337e-09   1.1650011599013870e-09   1.2802048775805257e-09   1.3097152049100052e-09   1.4377835788979483e-09   1.4590267875181058e-09   1.5962513559837195e-09   1.6071979105420529e-09   1.7495180723448460e-09   1.7485342804486675e-09   1.8916931241802713e-09   1.8776040786291084e-09   2.0173116402050467e-09   1.9894466320371962e-09   2.1215442649799673e-09   2.0797629645589652e-09   2.2003824822370857e-09   2.1450809156444757e-09   2.2507924328424090e-09   2.1828885075821394e-09   2.2708315089654750e-09   2.1917304939440155e-09   2.2597236131829015e-09   2.1712644846124521e-09   2.2178906291864552e-09   2.1222746662197654e-09   2.1469372553737888e-09   2.0466428156125108e-09   2.0495929769759544e-09   1.9472812105437932e-09   1.9291270513837315e-09   1.8279784381221526e-09   1.7484837400430898e-09   1.6947581040844237e-09   1.2919179353939624e-09   1.1569886121721769e-09   1.1537717347059127e-09   1.0697398686980034e-09   1.0235032918034550e-09   9.4668394461359889e-10   9.0772497765317228e-10   8.4031987887395658e-10   8.1083570261610276e-10   7.5433032206325749e-10   7.3655553822906274e-10   6.9200419706327958e-10   6.8773361468603392e-10   6.5572886958477095e-10   6.6624234627057493e-10   6.4689336459263673e-10   6.7290529536697799e-10   6.6583355112925545e-10   7.0746510377740136e-10   7.1181907697336844e-10   7.6859299790877125e-10   7.8308119530625597e-10   8.5393958305972200e-10   8.7688046109242182e-10   9.6022496009017219e-10   9.8961176961388128e-10   1.0833646680342723e-09   1.1169427245436930e-09   1.2186265842949492e-09   1.2539800116928757e-09   1.3608127331544633e-09   1.3954573687324017e-09   1.5044590029297222e-09   1.5359379118515073e-09   1.6440450877817911e-09   1.6700230322330500e-09   1.7742065790986501e-09   1.7925598264235818e-09   1.8899410498522855e-09   1.8988390839209086e-09   1.9868002074564900e-09   1.9847762204778258e-09   2.0610607309695802e-09   2.0470682040286143e-09   2.1098672384680445e-09   2.0833204467855157e-09   2.1313419254251448e-09   2.0921387987555971e-09   2.1246567386696387e-09   2.0731831306407442e-09   2.0900654518059989e-09   2.0271804865042908e-09   2.0288945882576958e-09   1.9558973595656074e-09   1.9434935036721167e-09   1.8620722430717511e-09   1.8371428864495282e-09   1.7493111929717243e-09   1.7139224418030696e-09   1.6219536244059324e-09   1.5780640703260181e-09   1.4848761203701631e-09   1.3987351451420514e-09   1.3445778040304407e-09   9.6453242873571838e-10   8.4461687322794324e-10   8.4846333374585611e-10   7.6810105719894707e-10   7.4994128661209181e-10   6.7403737988609784e-10   6.7421691583669276e-10   6.0505726392402992e-10   6.2415970685954500e-10   5.6343172896883400e-10   6.0169215934809950e-10   5.5074186502287624e-10   6.0767397171556570e-10   5.6746852012907040e-10   6.4187247372147298e-10   6.1296511089431153e-10   7.0297157413352664e-10   6.8548053772684483e-10   7.8862214221340135e-10   7.8222622131512558e-10   8.9553205200455542e-10   8.9948308836655082e-10   1.0195925080230137e-09   1.0327443136673014e-09   1.1560358106999687e-09   1.1768883558500032e-09   1.2996184883127461e-09   1.3263756516080424e-09   1.4448227425095630e-09   1.4754614092040987e-09   1.5860684528063070e-09   1.6184163162106767e-09   1.7179275832086651e-09   1.7497466710094957e-09   1.8353327446914346e-09   1.8644054709456983e-09   1.9337718940016268e-09   1.9579863397243574e-09   2.0094616841025969e-09   2.0268928382521550e-09   2.0594928048423545e-09   2.0684766512186857e-09   2.0819417341160156e-09   2.0811393403004743e-09   2.0759446202861644e-09   2.0643937583246829e-09   2.0417304876156896e-09   2.0188827735438255e-09   1.9806125412082375e-09   1.9463545998036367e-09   1.8949379762922851e-09   1.8495957022886776e-09   1.7879982608352563e-09   1.7323238839120210e-09   1.6639030859254505e-09   1.5990457045115132e-09   1.5274199630725400e-09   1.4548838621943936e-09   1.3837793986529384e-09   1.3053840625455799e-09   1.2380096438387864e-09   1.1562860849437188e-09   1.0654752122200755e-09   1.0142954361101663e-09   6.7079479931329626e-10   5.6910423947133904e-10   5.8008193227117600e-10   5.0708575629769249e-10   5.1550246065636278e-10   4.4426716849646964e-10   4.8080627912991941e-10   4.1355452238015845e-10   4.7729618498461947e-10   4.1581006224531911e-10   5.0510712423143272e-10   4.5092904324112812e-10   5.6316787004127906e-10   5.1755635001539186e-10   6.4924528025780167e-10   6.1312881493289883e-10   7.6003012949791209e-10   7.3397179557743083e-10   8.9126417819221248e-10   8.7544010260490968e-10   1.0379036808324187e-09   1.0320963676156773e-09   1.1943130958327360e-09   1.1979198768913988e-09   1.3544815654696323e-09   1.3665378411466185e-09   1.5122538451354598e-09   1.5314702171777477e-09   1.6615668007885042e-09   1.6863786722878242e-09   1.7966823789015845e-09   1.8253101201349755e-09   1.9124080901805992e-09   1.9429254643120326e-09   2.0042965298611481e-09   2.0347047549266086e-09   2.0688162647655461e-09   2.0971208709659359e-09   2.1034875196815171e-09   2.1277750521558601e-09   2.1069774510008345e-09   2.1254890715208299e-09   2.0791513525721469e-09   2.0903505078844392e-09   2.0210778382738814e-09   2.0237093819714079e-09   1.9349878218153235e-09   1.9281262912146091e-09   1.8241888966439985e-09   1.8072740447681208e-09   1.6929384302598249e-09   1.6657965889218822e-09   1.5462802278878203e-09   1.5091306554487505e-09   1.3898507538953953e-09   1.3432970165483600e-09   1.2296597487315942e-09   1.1746695509962810e-09   1.0718458673008145e-09   1.0097334422212389e-09   9.2203461485553658e-10   8.5483358854529691e-10   7.6151531512940816e-10   7.1660379641898723e-10   4.2198916354593328e-10   3.4103828722780388e-10   3.5893816911958889e-10   2.9672346541518450e-10   3.2919403814686586e-10   2.6620203106315959e-10   3.3492361838844508e-10   2.7317007034676404e-10   3.7588639683347793e-10   3.1713755995835460e-10   4.5050906305443382e-10   3.9640059745719932e-10   5.5592242589098666e-10   5.0790935629982570e-10   6.8807435607269262e-10   6.4737692048050180e-10   8.4188551566563529e-10   8.0944252693068890e-10   1.0114444938912964e-09   9.8787734459707367e-10   1.1902349050253028e-09   1.1758237428302350e-09   1.3713857426285970e-09   1.3660587506388578e-09   1.5479353749920960e-09   1.5512715708589364e-09   1.7130990365717895e-09   1.7243444830232494e-09   1.8605295334173538e-09   1.8786263383638748e-09   1.9845611405306229e-09   2.0081881345617840e-09   2.0804273155416161e-09   2.1080508462557428e-09   2.1444438600413978e-09   2.1743767537520605e-09   2.1741504889683779e-09   2.2046169157313763e-09   2.1684053680997323e-09   2.1976091177060669e-09   2.1274289888661833e-09   2.1536225320892259e-09   2.0527956989077122e-09   2.0743473744406075e-09   1.9473732210652923e-09   1.9628299553864954e-09   1.8152124946356017e-09   1.8233556271733094e-09   1.6613920820669659e-09   1.6612841272350666e-09   1.4918231231744679e-09   1.4828436508416934e-09   1.3130222989007578e-09   1.2948915726007593e-09   1.1318612942960291e-09   1.1046510398646488e-09   9.5530031660727754e-10   9.1943377055364443e-10   7.9010838732379241e-10   7.4636156730387806e-10   6.4228443142001896e-10   5.9210284159825965e-10   4.9853869941879304e-10   4.6294369578214422e-10   2.2767488024954698e-10   1.6918367403899422e-10   1.9352841239278939e-10   1.4509777061026748e-10   1.9817415382700482e-10   1.4668419721867726e-10   2.4217373754196789e-10   1.8929817783402634e-10   3.2382598103229244e-10   2.7120563830724049e-10   4.3999447006365259e-10   3.8925152479874809e-10   5.8621427919945690e-10   5.3889769360985312e-10   7.5686574429567997e-10   7.1439262876514433e-10   9.4539045129017192e-10   9.0899172244327821e-10   1.1445432482475834e-09   1.1152163522771142e-09   1.3466706408988085e-09   1.3251412352444429e-09   1.5440048835957618e-09   1.5306989602085134e-09   1.7289624657503836e-09   1.7239899893301993e-09   1.8944355232838030e-09   1.8975862139108468e-09   2.0340649757536867e-09   2.0448163983273838e-09   2.1424848916478028e-09   2.1600225417822883e-09   2.2155286901859285e-09   2.2387773051521581e-09   2.2503892547726484e-09   2.2780541465793415e-09   2.2457268049263809e-09   2.2763436269429802e-09   2.2017203817828457e-09   2.2337114152831248e-09   2.1200609699309116e-09   2.1517957649706475e-09   2.0038865221501538e-09   2.0337445579648727e-09   1.8576613871209747e-09   1.8840943373419533e-09   1.6870047770479331e-09   1.7085959781776818e-09   1.4984748694601642e-09   1.5139936980639658e-09   1.2993168377509997e-09   1.3077659022924683e-09   1.0971844711135222e-09   1.0978378280822372e-09   8.9984593787876238e-10   8.9227705853472355e-10   7.1488368198858249e-10   6.9898382768805831e-10   5.4939463289901612e-10   5.2538917382129392e-10   4.0951185801987393e-10   3.7819074336548235e-10   2.8665260975041038e-10   2.6306389823312512e-10   9.5318387430159994e-11   6.0145020117272085e-11   9.0208088123669433e-11   5.8035432498384804e-11   1.2747679686148247e-10   9.0306349618613873e-11   2.0612008022489994e-10   1.6516165673849672e-10   3.2311473465362575e-10   2.7977913848419808e-10   4.7396650067539058e-10   4.2975628000827485e-10   6.5287835284492261e-10   6.0933019055852519e-10   8.5297483962816211e-10   8.1160020881578453e-10   1.0665663653266973e-09   1.0287933698671201e-09   1.2854447143741614e-09   1.2525631600275375e-09   1.5011984954702619e-09   1.4743102891928743e-09   1.7055363895679192e-09   1.6855131695709133e-09   1.8906057811419193e-09   1.8780554038602925e-09   2.0492945290863325e-09   2.0445376992578835e-09   2.17550428