<?xml version="1.0"?>
<VTKFile type="UnstructuredGrid"  version="0.1"  >
<UnstructuredGrid>
<Piece  NumberOfPoints="25" NumberOfCells="32">
<Points>
<DataArray  type="Float64"  NumberOfComponents="3"  format="ascii">0 0 0  0.25 0 0  0.5 0 0  0.75 0 0  1 0 0  0 0.25 0  0.25 0.25 0  0.5 0.25 0  0.75 0.25 0  1 0.25 0  0 0.5 0  0.25 0.5 0  0.5 0.5 0  0.75 0.5 0  1 0.5 0  0 0.75 0  0.25 0.75 0  0.5 0.75 0  0.75 0.75 0  1 0.75 0  0 1 0  0.25 1 0  0.5 1 0  0.75 1 0  1 1 0  </DataArray>
</Points>
<Cells>
<DataArray  type="UInt32"  Name="connectivity"  format="ascii">0 1 6  0 5 6  1 2 7  1 6 7  2 3 8  2 7 8  3 4 9  3 8 9  5 6 11  5 10 11  6 7 12  6 11 12  7 8 13  7 12 13  8 9 14  8 13 14  10 11 16  10 15 16  11 12 17  11 16 17  12 13 18  12 17 18  13 14 19  13 18 19  15 16 21  15 20 21  16 17 22  16 21 22  17 18 23  17 22 23  18 19 24  18 23 24  </DataArray>
<DataArray  type="UInt32"  Name="offsets"  format="ascii">3 6 9 12 15 18 21 24 27 30 33 36 39 42 45 48 51 54 57 60 63 66 69 72 75 78 81 84 87 90 93 96 </DataArray>
<DataArray  type="UInt8"  Name="types"  format="ascii">5 5 5 5 5 5 5 5 5 5 5 5 5 5 5 5 5 5 5 5 5 5 5 5 5 5 5 5 5 5 5 5 </DataArray>
</Cells>
<CellData  Scalars="f_64904"> 
<DataArray  type="Float64"  Name="f_64904"  format="ascii">9.7276146466080060e-06   6.2707698359404862e-06   2.4236291351838729e-06   1.1909163118049651e-06   2.1698705194524245e-06   2.0553469184285099e-06   9.4101440537899789e-06   5.9487987609239955e-06   1.1609642411384583e-05   3.7461786450533601e-08   1.2659728267744665e-05   5.3741911431437067e-06   7.5009239447956088e-06   1.1820202259352559e-05   5.3934537133328503e-06   6.2865625487084958e-06   6.2544119195453718e-06   5.2892216621150230e-06   1.1795803002124724e-05   7.4801178752349376e-06   5.3879878885141643e-06   1.2627799055223431e-05   3.1881859018834160e-08   1.1566329649670339e-05   5.8786847882883931e-06   9.4101440537899941e-06   2.0994733350885970e-06   2.2039885980346660e-06   1.1981178301676783e-06   2.4508310648097749e-06   6.2122614717510509e-06   9.7409472631593576e-06   </DataArray> 
</CellData> 
</Piece>
</UnstructuredGrid>
</VTKFile>