<?xml version="1.0"?>
<VTKFile type="UnstructuredGrid"  version="0.1"  >
<UnstructuredGrid>
<Piece  NumberOfPoints="1089" NumberOfCells="2048">
<Points>
<DataArray  type="Float64"  NumberOfComponents="3"  format="ascii">0 0 0  0.03125 0 0  0.0625 0 0  0.09375 0 0  0.125 0 0  0.15625 0 0  0.1875 0 0  0.21875 0 0  0.25 0 0  0.28125 0 0  0.3125 0 0  0.34375 0 0  0.375 0 0  0.40625 0 0  0.4375 0 0  0.46875 0 0  0.5 0 0  0.53125 0 0  0.5625 0 0  0.59375 0 0  0.625 0 0  0.65625 0 0  0.6875 0 0  0.71875 0 0  0.75 0 0  0.78125 0 0  0.8125 0 0  0.84375 0 0  0.875 0 0  0.90625 0 0  0.9375 0 0  0.96875 0 0  1 0 0  0 0.03125 0  0.03125 0.03125 0  0.0625 0.03125 0  0.09375 0.03125 0  0.125 0.03125 0  0.15625 0.03125 0  0.1875 0.03125 0  0.21875 0.03125 0  0.25 0.03125 0  0.28125 0.03125 0  0.3125 0.03125 0  0.34375 0.03125 0  0.375 0.03125 0  0.40625 0.03125 0  0.4375 0.03125 0  0.46875 0.03125 0  0.5 0.03125 0  0.53125 0.03125 0  0.5625 0.03125 0  0.59375 0.03125 0  0.625 0.03125 0  0.65625 0.03125 0  0.6875 0.03125 0  0.71875 0.03125 0  0.75 0.03125 0  0.78125 0.03125 0  0.8125 0.03125 0  0.84375 0.03125 0  0.875 0.03125 0  0.90625 0.03125 0  0.9375 0.03125 0  0.96875 0.03125 0  1 0.03125 0  0 0.0625 0  0.03125 0.0625 0  0.0625 0.0625 0  0.09375 0.0625 0  0.125 0.0625 0  0.15625 0.0625 0  0.1875 0.0625 0  0.21875 0.0625 0  0.25 0.0625 0  0.28125 0.0625 0  0.3125 0.0625 0  0.34375 0.0625 0  0.375 0.0625 0  0.40625 0.0625 0  0.4375 0.0625 0  0.46875 0.0625 0  0.5 0.0625 0  0.53125 0.0625 0  0.5625 0.0625 0  0.59375 0.0625 0  0.625 0.0625 0  0.65625 0.0625 0  0.6875 0.0625 0  0.71875 0.0625 0  0.75 0.0625 0  0.78125 0.0625 0  0.8125 0.0625 0  0.84375 0.0625 0  0.875 0.0625 0  0.90625 0.0625 0  0.9375 0.0625 0  0.96875 0.0625 0  1 0.0625 0  0 0.09375 0  0.03125 0.09375 0  0.0625 0.09375 0  0.09375 0.09375 0  0.125 0.09375 0  0.15625 0.09375 0  0.1875 0.09375 0  0.21875 0.09375 0  0.25 0.09375 0  0.28125 0.09375 0  0.3125 0.09375 0  0.34375 0.09375 0  0.375 0.09375 0  0.40625 0.09375 0  0.4375 0.09375 0  0.46875 0.09375 0  0.5 0.09375 0  0.53125 0.09375 0  0.5625 0.09375 0  0.59375 0.09375 0  0.625 0.09375 0  0.65625 0.09375 0  0.6875 0.09375 0  0.71875 0.09375 0  0.75 0.09375 0  0.78125 0.09375 0  0.8125 0.09375 0  0.84375 0.09375 0  0.875 0.09375 0  0.90625 0.09375 0  0.9375 0.09375 0  0.96875 0.09375 0  1 0.09375 0  0 0.125 0  0.03125 0.125 0  0.0625 0.125 0  0.09375 0.125 0  0.125 0.125 0  0.15625 0.125 0  0.1875 0.125 0  0.21875 0.125 0  0.25 0.125 0  0.28125 0.125 0  0.3125 0.125 0  0.34375 0.125 0  0.375 0.125 0  0.40625 0.125 0  0.4375 0.125 0  0.46875 0.125 0  0.5 0.125 0  0.53125 0.125 0  0.5625 0.125 0  0.59375 0.125 0  0.625 0.125 0  0.65625 0.125 0  0.6875 0.125 0  0.71875 0.125 0  0.75 0.125 0  0.78125 0.125 0  0.8125 0.125 0  0.84375 0.125 0  0.875 0.125 0  0.90625 0.125 0  0.9375 0.125 0  0.96875 0.125 0  1 0.125 0  0 0.15625 0  0.03125 0.15625 0  0.0625 0.15625 0  0.09375 0.15625 0  0.125 0.15625 0  0.15625 0.15625 0  0.1875 0.15625 0  0.21875 0.15625 0  0.25 0.15625 0  0.28125 0.15625 0  0.3125 0.15625 0  0.34375 0.15625 0  0.375 0.15625 0  0.40625 0.15625 0  0.4375 0.15625 0  0.46875 0.15625 0  0.5 0.15625 0  0.53125 0.15625 0  0.5625 0.15625 0  0.59375 0.15625 0  0.625 0.15625 0  0.65625 0.15625 0  0.6875 0.15625 0  0.71875 0.15625 0  0.75 0.15625 0  0.78125 0.15625 0  0.8125 0.15625 0  0.84375 0.15625 0  0.875 0.15625 0  0.90625 0.15625 0  0.9375 0.15625 0  0.96875 0.15625 0  1 0.15625 0  0 0.1875 0  0.03125 0.1875 0  0.0625 0.1875 0  0.09375 0.1875 0  0.125 0.1875 0  0.15625 0.1875 0  0.1875 0.1875 0  0.21875 0.1875 0  0.25 0.1875 0  0.28125 0.1875 0  0.3125 0.1875 0  0.34375 0.1875 0  0.375 0.1875 0  0.40625 0.1875 0  0.4375 0.1875 0  0.46875 0.1875 0  0.5 0.1875 0  0.53125 0.1875 0  0.5625 0.1875 0  0.59375 0.1875 0  0.625 0.1875 0  0.65625 0.1875 0  0.6875 0.1875 0  0.71875 0.1875 0  0.75 0.1875 0  0.78125 0.1875 0  0.8125 0.1875 0  0.84375 0.1875 0  0.875 0.1875 0  0.90625 0.1875 0  0.9375 0.1875 0  0.96875 0.1875 0  1 0.1875 0  0 0.21875 0  0.03125 0.21875 0  0.0625 0.21875 0  0.09375 0.21875 0  0.125 0.21875 0  0.15625 0.21875 0  0.1875 0.21875 0  0.21875 0.21875 0  0.25 0.21875 0  0.28125 0.21875 0  0.3125 0.21875 0  0.34375 0.21875 0  0.375 0.21875 0  0.40625 0.21875 0  0.4375 0.21875 0  0.46875 0.21875 0  0.5 0.21875 0  0.53125 0.21875 0  0.5625 0.21875 0  0.59375 0.21875 0  0.625 0.21875 0  0.65625 0.21875 0  0.6875 0.21875 0  0.71875 0.21875 0  0.75 0.21875 0  0.78125 0.21875 0  0.8125 0.21875 0  0.84375 0.21875 0  0.875 0.21875 0  0.90625 0.21875 0  0.9375 0.21875 0  0.96875 0.21875 0  1 0.21875 0  0 0.25 0  0.03125 0.25 0  0.0625 0.25 0  0.09375 0.25 0  0.125 0.25 0  0.15625 0.25 0  0.1875 0.25 0  0.21875 0.25 0  0.25 0.25 0  0.28125 0.25 0  0.3125 0.25 0  0.34375 0.25 0  0.375 0.25 0  0.40625 0.25 0  0.4375 0.25 0  0.46875 0.25 0  0.5 0.25 0  0.53125 0.25 0  0.5625 0.25 0  0.59375 0.25 0  0.625 0.25 0  0.65625 0.25 0  0.6875 0.25 0  0.71875 0.25 0  0.75 0.25 0  0.78125 0.25 0  0.8125 0.25 0  0.84375 0.25 0  0.875 0.25 0  0.90625 0.25 0  0.9375 0.25 0  0.96875 0.25 0  1 0.25 0  0 0.28125 0  0.03125 0.28125 0  0.0625 0.28125 0  0.09375 0.28125 0  0.125 0.28125 0  0.15625 0.28125 0  0.1875 0.28125 0  0.21875 0.28125 0  0.25 0.28125 0  0.28125 0.28125 0  0.3125 0.28125 0  0.34375 0.28125 0  0.375 0.28125 0  0.40625 0.28125 0  0.4375 0.28125 0  0.46875 0.28125 0  0.5 0.28125 0  0.53125 0.28125 0  0.5625 0.28125 0  0.59375 0.28125 0  0.625 0.28125 0  0.65625 0.28125 0  0.6875 0.28125 0  0.71875 0.28125 0  0.75 0.28125 0  0.78125 0.28125 0  0.8125 0.28125 0  0.84375 0.28125 0  0.875 0.28125 0  0.90625 0.28125 0  0.9375 0.28125 0  0.96875 0.28125 0  1 0.28125 0  0 0.3125 0  0.03125 0.3125 0  0.0625 0.3125 0  0.09375 0.3125 0  0.125 0.3125 0  0.15625 0.3125 0  0.1875 0.3125 0  0.21875 0.3125 0  0.25 0.3125 0  0.28125 0.3125 0  0.3125 0.3125 0  0.34375 0.3125 0  0.375 0.3125 0  0.40625 0.3125 0  0.4375 0.3125 0  0.46875 0.3125 0  0.5 0.3125 0  0.53125 0.3125 0  0.5625 0.3125 0  0.59375 0.3125 0  0.625 0.3125 0  0.65625 0.3125 0  0.6875 0.3125 0  0.71875 0.3125 0  0.75 0.3125 0  0.78125 0.3125 0  0.8125 0.3125 0  0.84375 0.3125 0  0.875 0.3125 0  0.90625 0.3125 0  0.9375 0.3125 0  0.96875 0.3125 0  1 0.3125 0  0 0.34375 0  0.03125 0.34375 0  0.0625 0.34375 0  0.09375 0.34375 0  0.125 0.34375 0  0.15625 0.34375 0  0.1875 0.34375 0  0.21875 0.34375 0  0.25 0.34375 0  0.28125 0.34375 0  0.3125 0.34375 0  0.34375 0.34375 0  0.375 0.34375 0  0.40625 0.34375 0  0.4375 0.34375 0  0.46875 0.34375 0  0.5 0.34375 0  0.53125 0.34375 0  0.5625 0.34375 0  0.59375 0.34375 0  0.625 0.34375 0  0.65625 0.34375 0  0.6875 0.34375 0  0.71875 0.34375 0  0.75 0.34375 0  0.78125 0.34375 0  0.8125 0.34375 0  0.84375 0.34375 0  0.875 0.34375 0  0.90625 0.34375 0  0.9375 0.34375 0  0.96875 0.34375 0  1 0.34375 0  0 0.375 0  0.03125 0.375 0  0.0625 0.375 0  0.09375 0.375 0  0.125 0.375 0  0.15625 0.375 0  0.1875 0.375 0  0.21875 0.375 0  0.25 0.375 0  0.28125 0.375 0  0.3125 0.375 0  0.34375 0.375 0  0.375 0.375 0  0.40625 0.375 0  0.4375 0.375 0  0.46875 0.375 0  0.5 0.375 0  0.53125 0.375 0  0.5625 0.375 0  0.59375 0.375 0  0.625 0.375 0  0.65625 0.375 0  0.6875 0.375 0  0.71875 0.375 0  0.75 0.375 0  0.78125 0.375 0  0.8125 0.375 0  0.84375 0.375 0  0.875 0.375 0  0.90625 0.375 0  0.9375 0.375 0  0.96875 0.375 0  1 0.375 0  0 0.40625 0  0.03125 0.40625 0  0.0625 0.40625 0  0.09375 0.40625 0  0.125 0.40625 0  0.15625 0.40625 0  0.1875 0.40625 0  0.21875 0.40625 0  0.25 0.40625 0  0.28125 0.40625 0  0.3125 0.40625 0  0.34375 0.40625 0  0.375 0.40625 0  0.40625 0.40625 0  0.4375 0.40625 0  0.46875 0.40625 0  0.5 0.40625 0  0.53125 0.40625 0  0.5625 0.40625 0  0.59375 0.40625 0  0.625 0.40625 0  0.65625 0.40625 0  0.6875 0.40625 0  0.71875 0.40625 0  0.75 0.40625 0  0.78125 0.40625 0  0.8125 0.40625 0  0.84375 0.40625 0  0.875 0.40625 0  0.90625 0.40625 0  0.9375 0.40625 0  0.96875 0.40625 0  1 0.40625 0  0 0.4375 0  0.03125 0.4375 0  0.0625 0.4375 0  0.09375 0.4375 0  0.125 0.4375 0  0.15625 0.4375 0  0.1875 0.4375 0  0.21875 0.4375 0  0.25 0.4375 0  0.28125 0.4375 0  0.3125 0.4375 0  0.34375 0.4375 0  0.375 0.4375 0  0.40625 0.4375 0  0.4375 0.4375 0  0.46875 0.4375 0  0.5 0.4375 0  0.53125 0.4375 0  0.5625 0.4375 0  0.59375 0.4375 0  0.625 0.4375 0  0.65625 0.4375 0  0.6875 0.4375 0  0.71875 0.4375 0  0.75 0.4375 0  0.78125 0.4375 0  0.8125 0.4375 0  0.84375 0.4375 0  0.875 0.4375 0  0.90625 0.4375 0  0.9375 0.4375 0  0.96875 0.4375 0  1 0.4375 0  0 0.46875 0  0.03125 0.46875 0  0.0625 0.46875 0  0.09375 0.46875 0  0.125 0.46875 0  0.15625 0.46875 0  0.1875 0.46875 0  0.21875 0.46875 0  0.25 0.46875 0  0.28125 0.46875 0  0.3125 0.46875 0  0.34375 0.46875 0  0.375 0.46875 0  0.40625 0.46875 0  0.4375 0.46875 0  0.46875 0.46875 0  0.5 0.46875 0  0.53125 0.46875 0  0.5625 0.46875 0  0.59375 0.46875 0  0.625 0.46875 0  0.65625 0.46875 0  0.6875 0.46875 0  0.71875 0.46875 0  0.75 0.46875 0  0.78125 0.46875 0  0.8125 0.46875 0  0.84375 0.46875 0  0.875 0.46875 0  0.90625 0.46875 0  0.9375 0.46875 0  0.96875 0.46875 0  1 0.46875 0  0 0.5 0  0.03125 0.5 0  0.0625 0.5 0  0.09375 0.5 0  0.125 0.5 0  0.15625 0.5 0  0.1875 0.5 0  0.21875 0.5 0  0.25 0.5 0  0.28125 0.5 0  0.3125 0.5 0  0.34375 0.5 0  0.375 0.5 0  0.40625 0.5 0  0.4375 0.5 0  0.46875 0.5 0  0.5 0.5 0  0.53125 0.5 0  0.5625 0.5 0  0.59375 0.5 0  0.625 0.5 0  0.65625 0.5 0  0.6875 0.5 0  0.71875 0.5 0  0.75 0.5 0  0.78125 0.5 0  0.8125 0.5 0  0.84375 0.5 0  0.875 0.5 0  0.90625 0.5 0  0.9375 0.5 0  0.96875 0.5 0  1 0.5 0  0 0.53125 0  0.03125 0.53125 0  0.0625 0.53125 0  0.09375 0.53125 0  0.125 0.53125 0  0.15625 0.53125 0  0.1875 0.53125 0  0.21875 0.53125 0  0.25 0.53125 0  0.28125 0.53125 0  0.3125 0.53125 0  0.34375 0.53125 0  0.375 0.53125 0  0.40625 0.53125 0  0.4375 0.53125 0  0.46875 0.53125 0  0.5 0.53125 0  0.53125 0.53125 0  0.5625 0.53125 0  0.59375 0.53125 0  0.625 0.53125 0  0.65625 0.53125 0  0.6875 0.53125 0  0.71875 0.53125 0  0.75 0.53125 0  0.78125 0.531
[...]
<CellData  Scalars="f_35753"> 
<DataArray  type="Float64"  Name="f_35753"  format="ascii">2.2573325067796302e-04   2.2335065361392924e-04   2.2142548195379697e-04   2.1903610402784589e-04   2.1296960277523833e-04   2.1063397651145861e-04   2.0069077896772290e-04   1.9846090652081406e-04   1.8506097589333621e-04   1.8298158157808487e-04   1.6668085885568302e-04   1.6478892506635725e-04   1.4625673323109576e-04   1.4458068564936557e-04   1.2457341834310075e-04   1.2313236593172573e-04   1.0246410062648220e-04   1.0126730569014273e-04   8.0778325916446749e-05   7.9824989673585528e-05   6.0349361459572330e-05   5.9628764884631305e-05   4.1962182124188908e-05   4.1454192907069536e-05   2.6323311139753365e-05   2.5999246047455339e-05   1.4033674350348873e-05   1.3857488691442473e-05   5.5655111273553436e-06   5.4952722802068141e-06   1.2442291813942224e-06   1.2338189814258679e-06   1.2359005251083613e-06   1.2368817693231348e-06   5.5408790616191226e-06   5.5044546303950006e-06   1.3993785036805164e-05   1.3872774301108604e-05   2.6269856935026122e-05   2.6020613307139088e-05   4.1897426719021719e-05   4.1481622441825741e-05   6.0276039017189846e-05   5.9662248523908252e-05   8.0699517985428307e-05   7.9864539296836660e-05   1.0238309544689529e-04   1.0131295999046887e-04   1.2449355783920497e-04   1.2318419274103543e-04   1.4618125345658873e-04   1.4463877702603474e-04   1.6661272988981993e-04   1.6485338175146563e-04   1.8500274711591379e-04   1.8305248252652810e-04   2.0064443512680255e-04   1.9853825833875669e-04   2.1293643488314032e-04   2.1071764120747746e-04   2.2140597322321565e-04   2.1912573801680606e-04   2.2572696347075287e-04   2.2344580028524138e-04   2.2339263860016856e-04   2.1726813890841240e-04   2.1919672019465593e-04   2.1308579236319167e-04   2.1097927576105974e-04   2.0500327642157073e-04   1.9904986807589423e-04   1.9332496985758642e-04   1.8386383006763896e-04   1.7849585307887935e-04   1.6600277919065064e-04   1.6108307443929033e-04   1.4615164333283461e-04   1.4175362385185664e-04   1.2507209259606040e-04   1.2124847264028019e-04   1.0357316643315665e-04   1.0035399589575989e-04   8.2480143172591143e-05   7.9871709752521236e-05   6.2602814485724438e-05   6.0587457897910121e-05   4.4704368563742931e-05   4.3241216750426575e-05   2.9472070114203761e-05   2.8498671394200344e-05   1.7490859781982542e-05   1.6925649672653072e-05   9.2208851678968590e-06   8.9663938917631007e-06   4.9798254693180652e-06   4.9265032126013438e-06   4.9306880889234811e-06   4.9612009913561815e-06   9.0755456012456035e-06   9.0693771102025494e-06   1.7255453403072147e-05   1.7093633691250875e-05   2.9156551026093220e-05   2.8726332090675443e-05   4.4322112625734151e-05   4.3521408649242536e-05   6.2170083747181020e-05   6.0911505244792320e-05   8.2015430943107215e-05   8.0229756837604029e-05   1.0309644635688269e-04   1.0073539986539973e-04   1.2460399825203758e-04   1.2164221957602824e-04   1.4571260683582385e-04   1.4214874714783791e-04   1.6561215775387269e-04   1.6146905363584665e-04   1.8353904818256653e-04   1.7886297167585722e-04   1.9880559991166991e-04   1.9366461288630970e-04   2.1082669138505810e-04   2.0530815151807569e-04   2.1914284545633103e-04   2.1335005059514261e-04   2.2343997802200342e-04   2.1748728349495395e-04   2.1737697412083274e-04   2.0765145633506185e-04   2.1347550073371694e-04   2.0371000922616948e-04   2.0579325860551505e-04   1.9617793605011786e-04   1.9461907519769192e-04   1.8533959474341152e-04   1.8037841727794473e-04   1.7160777292873241e-04   1.6361568894112546e-04   1.5550719962396201e-04   1.4497276941314354e-04   1.3765404342194499e-04   1.2516411619936289e-04   1.1873207768467162e-04   1.0494920986861087e-04   9.9466341416902765e-05   8.5103330974180667e-05   8.0595262821823668e-05   6.6387761665630211e-05   6.2842293754833574e-05   4.9520541292265486e-05   4.6888132671743250e-05   3.5148890866939994e-05   3.3344596127755230e-05   2.3824360737148656e-05   2.2731138236817578e-05   1.5981653193019850e-05   1.5454917338943829e-05   1.1921931718195729e-05   1.1795173808868370e-05   1.1801256908945221e-05   1.1892517910354184e-05   1.5624592544827683e-05   1.5743538333429278e-05   2.3245611561662787e-05   2.3200937867791564e-05   3.4372309047343295e-05   3.3979190479519549e-05   4.8578206472861535e-05   4.7665502084600219e-05   6.5318716814849367e-05   6.3735653758890907e-05   8.3952042345998709e-05   8.1574118886268128e-05   1.0376380338391906e-04   1.0049768211615694e-04   1.2399445406225719e-04   1.1978165441796763e-04   1.4386843606514315e-04   1.3868768038183740e-04   1.6262395809971006e-04   1.5649207552714825e-04   1.7954227201859578e-04   1.7251361614627024e-04   1.9397535160172748e-04   1.8613973525179742e-04   2.0537098024783496e-04   1.9685015884571782e-04   2.1329445945438775e-04   2.0423714303497968e-04   2.1744654408899894e-04   2.0802156854323478e-04   2.0785685657639697e-04   1.9479520901648071e-04   2.0441531260441447e-04   1.9119235715571914e-04   1.9754970871253120e-04   1.8442473391245081e-04   1.8751857095790372e-04   1.7474845060354340e-04   1.7470345488467516e-04   1.6253200546666391e-04   1.5959367147790854e-04   1.4824191234322654e-04   1.4276714425808285e-04   1.3242460806256760e-04   1.2486804301105493e-04   1.1568537312493147e-04   1.0658196773170922e-04   9.8665051717246511e-05   8.8609590592395658e-05   8.2015441605042580e-05   7.1639744883099181e-05   6.6374283043011431e-05   5.6322981756418302e-05   5.2340797290473649e-05   4.3246602893262798e-05   4.0452707991638594e-05   3.2912123386465405e-05   3.1165623981828600e-05   2.5716027500546588e-05   2.4835572756426683e-05   2.1934554541610660e-05   2.1705353680073743e-05   2.1713097928727746e-05   2.1895233828713102e-05   2.5060623767717383e-05   2.5398342870706256e-05   3.1849322679147534e-05   3.2080943080461161e-05   4.1819507800051683e-05   4.1687563428512304e-05   5.4589570547716916e-05   5.3850799957081962e-05   6.9670611709005920e-05   6.8105405566397969e-05   8.6485186235596764e-05   8.3906127854301845e-05   1.0438944277713435e-04   1.0064861017631443e-04   1.2269780968195905e-04   1.1769255425835910e-04   1.4070928319890957e-04   1.3438625718110021e-04   1.5773431518660899e-04   1.5009158497260278e-04   1.7312128025879017e-04   1.6420843184230909e-04   1.8628152936200521e-04   1.7619773915427919e-04   1.9671211255442074e-04   1.8560220863001061e-04   2.0401537774999474e-04   1.9206392366976868e-04   2.0791475774610633e-04   1.9533813627467523e-04   1.9512427800772337e-04   1.7911165012470467e-04   1.9229089296082065e-04   1.7593259955871253e-04   1.8649824637729373e-04   1.7011912438025207e-04   1.7796477285190093e-04   1.6189156710882518e-04   1.6701482267231300e-04   1.5156319693106600e-04   1.5406602452857881e-04   1.3952813441673584e-04   1.3961308048461636e-04   1.2624615445630809e-04   1.2420867808644371e-04   1.1222500046486781e-04   1.0844223391398350e-04   9.8000891308686657e-05   9.2917262055298405e-05   8.4117959657518634e-05   7.8228220459988180e-05   7.1107401092086744e-05   6.4937714040507919e-05   5.9467126683911643e-05   5.3554923450338477e-05   4.9642694763404370e-05   4.4516083703689872e-05   4.2010250247270584e-05   3.8167759530449076e-05   3.6862124033226290e-05   3.4753557882901914e-05   3.4395643628666536e-05   3.4404786601575099e-05   3.4705583366758465e-05   3.7135417063369642e-05   3.7780543085711745e-05   4.2841543567632181e-05   4.3503393431927723e-05   5.1305359676247374e-05   5.1655769849762531e-05   6.2203498407251018e-05   6.1926441898161228e-05   7.5119415817178850e-05   7.3923235821589365e-05   8.9559342601701052e-05   8.7188052082421173e-05   1.0497119194525926e-04   1.0121440114691779e-04   1.2076569933008928e-04   1.1546678485189278e-04   1.3633898590366053e-04   1.2940118096799717e-04   1.5109568488097907e-04   1.4248584790312960e-04   1.6447175290782007e-04   1.5422165635476745e-04   1.7595610668002292e-04   1.6416117463401796e-04   1.8511027770661394e-04   1.7192578005386080e-04   1.9158535113965032e-04   1.7722012867555322e-04   1.9513549322262982e-04   1.7984337141302615e-04   1.7958775375142590e-04   1.6111878450975298e-04   1.7748982475187581e-04   1.5843391000699422e-04   1.7299192708976994e-04   1.5373293890513884e-04   1.6626367569797806e-04   1.4719414446229178e-04   1.5756050546476870e-04   1.3906633281207155e-04   1.4721386741367375e-04   1.2965929665892297e-04   1.3561845923774820e-04   1.1933191815192518e-04   1.2321704910878291e-04   1.0847840393202485e-04   1.1048348450441561e-04   9.7513185830066097e-05   9.7904530475529853e-05   8.6855062420918282e-05   8.5961224876162056e-05   7.6911183412501112e-05   7.5110458545537157e-05   6.8061485361599176e-05   6.5767482037527497e-05   6.0644171184771379e-05   5.8290006678966786e-05   5.4942787177092779e-05   5.2964507769271294e-05   5.1175390982223584e-05   4.9995254021944794e-05   4.9486224442721983e-05   4.9496483214687503e-05   4.9940209585369031e-05   5.1488023543848463e-05   5.2520477893607491e-05   5.5894528070792677e-05   5.7129026699665429e-05   6.2548351043731164e-05   6.3590476524780443e-05   7.1195955171408749e-05   7.1658784179129263e-05   8.1507603549595072e-05   8.1026653043462453e-05   9.3089964174084705e-05   9.1337278614935359e-05   1.0550114373083616e-04   1.0219797815319635e-04   1.1826757501033932e-04   1.1319518160473639e-04   1.3090211252448942e-04   1.2391020971059145e-04   1.4292264653566883e-04   1.3393523623365133e-04   1.5387052850567178e-04   1.4288882535863786e-04   1.6332811106993907e-04   1.5043045171629212e-04   1.7093473978932331e-04   1.5627344620086997e-04   1.7640058115099850e-04   1.6019586090822911e-04   1.7951770856992414e-04   1.6204880888667691e-04   1.6176054751388674e-04   1.4142338201134940e-04   1.6050024591905077e-04   1.3928590742304730e-04   1.5747583648145560e-04   1.3581833977916358e-04   1.5280104215270747e-04   1.3115208024224020e-04   1.4665285234745880e-04   1.2546437197213546e-04   1.3926478786293372e-04   1.1897150788002940e-04   1.3091796169725350e-04   1.1192055040037661e-04   1.2193031676364544e-04   1.0457988848544496e-04   1.1264446519661581e-04   9.7228994219405302e-05   1.0341459417994809e-04   9.0147767748690458e-05   9.4592935005924795e-05   8.3605873581112298e-05   8.6516308758026087e-05   7.7852471863106693e-05   7.9493260212048136e-05   7.3106733995656790e-05   7.3792270246349768e-05   6.9549502896943958e-05   6.9631496707771008e-05   6.7316415217843117e-05   6.7170435778792469e-05   6.6492747420782505e-05   6.6503822684176679e-05   6.7110181956427206e-05   6.7658004930513715e-05   6.9145616367590420e-05   7.0589926538214138e-05   7.2522059885788001e-05   7.5188761608999593e-05   7.7111582025411916e-05   8.1280133983616297e-05   8.2740198964887274e-05   8.8632760657711516e-05   8.9194509221864586e-05   9.6967263915795300e-05   9.6229823201913702e-05   1.0596681445110897e-04   1.0357947425957496e-04   1.1528919831393014e-04   1.1096495418999594e-04   1.2457984710381238e-04   1.1810648528767738e-04   1.3348533545245152e-04   1.2473362534623167e-04   1.4166683369670367e-04   1.3059550152573493e-04   1.4881300652836324e-04   1.3547028326479400e-04   1.5465186792658507e-04   1.3917353193574031e-04   1.5896113331129985e-04   1.4156510442800673e-04   1.6157664526481906e-04   1.4255434049600198e-04   1.4224386102375312e-04   1.2069996009532345e-04   1.4189446406255389e-04   1.1914404200710600e-04   1.4047210299334418e-04   1.1698846157061825e-04   1.3802951571876580e-04   1.1431461780024554e-04   1.3465834914001145e-04   1.1122354248834713e-04   1.3048570561454488e-04   1.0783202529571423e-04   1.2566932166133905e-04   1.0426816208725629e-04   1.2039157622441781e-04   1.0066649428823687e-04   1.1485256329865626e-04   9.7162920516344264e-05   1.0926249303128103e-04   9.3889569301515620e-05   1.0383370828945833e-04   9.0969823151101686e-05   9.8772618011630948e-05   8.8513679073228948e-05   9.4271852526005363e-05   8.6613618731972984e-05   9.0502938478602700e-05   8.5341142862455598e-05   8.7609771985191072e-05   8.4744099976416374e-05   8.5703138704849597e-05   8.4844909613925946e-05   8.4856489857195594e-05   8.5639746569573616e-05   8.5103135322642592e-05   8.7098715964063872e-05   8.6434960767282145e-05   8.9167011188384036e-05   8.8802717363176031e-05   9.1767009127610645e-05   9.2117872439933935e-05   9.4801221181520462e-05   9.6255949686629202e-05   9.8155985883056560e-05   1.0106123068857111e-04   1.0170576069366358e-04   1.0635263788072119e-04   1.0531784796707712e-04   1.1193057447289396e-04   1.0885737402396186e-04   1.1758446128996278e-04   1.1219233138257353e-04   1.2310068509608323e-04   1.1519849271645483e-04   1.2827065857809122e-04   1.1776401095115607e-04   1.3289868867613695e-04   1.1979353262076955e-04   1.3680935622436581e-04   1.2121167061655574e-04   1.3985412394354937e-04   1.2196570764432544e-04   1.4191691103803376e-04   1.2202743382805844e-04   1.2170603245327195e-04   9.9666713638260266e-05   1.2230902184294257e-04   9.8706124481408593e-05   1.2256173506513583e-04   9.7895447474337176e-05   1.2245300891856542e-04   9.7264734109346916e-05   1.2198520369756873e-04   9.6836817666718343e-05   1.2117416619890681e-04   9.6626428581117216e-05   1.2004869070482842e-04   9.6639660429804195e-05   1.1864949622013776e-04   9.6873798858222363e-05   1.1702775682826411e-04   9.7317511262046794e-05   1.1524323744143217e-04   9.7951381453956730e-05   1.1336210140607038e-04   9.8748761193326507e-05   1.1145446909571767e-04   9.9676899466848292e-05   1.0959181687134508e-04   1.0069830095916042e-04   1.0784431281382258e-04   1.0177225746793976e-04   1.0627818891283748e-04   1.0285649031851378e-04   1.0495324869321268e-04   1.0390883830726811e-04   1.0392060456793939e-04   1.0488892448910618e-04   1.0322073072872734e-04   1.0575973629316712e-04   1.0288190548867678e-04   1.0648905700090209e-04   1.0291910219235791e-04   1.0705069246860199e-04   1.0333337074032179e-04   1.0742544495761736e-04   1.0411173316039984e-04   1.0760179580700574e-04   1.0522759728121665e-04   1.0757627012762425e-04   1.0664167323063455e-04   1.0735346932947460e-04   1.0830335898835609e-04   1.0694577067134000e-04   1.1015254429792715e-04   1.0637270664661125e-04   1.1212176749813970e-04   1.0566005035786923e-04   1.1413864766312290e-04   1.0483864554093593e-04   1.1612850493777989e-04   1.0394303110294833e-04   1.1801707489038283e-04   1.0300991966703354e-04   1.1973321788759727e-04   1.0207659775994283e-04   1.2121152273570152e-04   1.0117932210004939e-04   1.0085871001236905e-04   7.9059410823985565e-05   1.0242197660303130e-04   7.8686928248175467e-05   1.0436394255143073e-04   7.9206731525911908e-05   1.0660891629186142e-04   8.0598015398795117e-05   1.0906917088727716e-04   8.2806191979146332e-05   1.1164835126857323e-04   8.5744966862393449e-05   1.1424524321348095e-04   8.9299678829003927e-05   1.1675774983800284e-04   9.3331764409824153e-05   1.1908691555114281e-04   9.7684165367076324e-05   1.2114083632370378e-04   1.0218746171130567e-04   1.2283830003876080e-04   1.0666648635252001e-04   1.2411201182198367e-04   1.1094716049619765e-04   1.2491127612282432e-04   1.1486328185021999e-04   1.2520402913349159e-04   1.1826300076107716e-04   1.2497814092953804e-04   1.2101473238694908e-04   1.2424193543983308e-04   1.2301227544002979e-04   1.2302390688658687e-04   1.2417893905020399e-04   1.2137164252840217e-04   1.2447051776036451e-04   1.1934999223558459e-04   1.2387699913090925e-04   1.1703855450459097e-04   1.2242293725296750e-04   1.1452857492416334e-04   1.2016647683091597e-04   1.1191937589292217e-04   1.1719706448411071e-04   1.0931445474783381e-04   1.1363193460110566e-04   1.0681740075496355e-04   1.0961150456745506e-04   1.0452778917894295e-04   1.0529385671017240e-04   1.0253721261686840e-04   1.0084852026629440e-04   1.0092560586138366e-04   9.6449794746574728e-05   9.9758010798941944e-05   9.2269875190872079e-05   9.9081912424613480e-05   8.8472049339161286e-05   9.8925256287630813e-05   8.5204236431806214e-05   9.9295232265433670e-05   8.2593127366728032e-05   1.0017788081621109e-04   8.0739166438323289e-05   8.0431008418845051e-05   5.9604323830347338e-05   8.2928291228932127e-05   5.9791878296238307e-05   8.6513739795789004e-05   6.1580501391076664e-05   9.1048825885068179e-05   6.4900845670033829e-05   9.6358141655211637e-05   6.9624440438399601e-05   1.0223615981449053e-04   7.5568593802639281e-05   1.0845518921302871e-04   8.2503426243687853e-05   1.1477420786060611e-04   9.0160754156984601e-05   1.2094822406854098e-04   9.8244471002473368e-05   1.2673779783445042e-04   1.0644201713794721e-04   1.3191834985968768e-04   1.1443648907934435e-04   1.3628889505413447e-04   1.2191891601923520e-04   1.3967986069490397e-04   1.2860022656117350e-04   1.4195968562536181e-04   1.3422244185041333e-04   1.4303994457548231e-04   1.3856866204894653e-04   1.4287879900382473e-04   1.4147146023968827e-04   1.4148264061473177e-04   1.4281935956961877e-04   1.3890586343454515e-04   1.4256114342965051e-04   1.3524877240718390e-04   1.4070783192741409e-04   1.3065370818055646e-04   1.3733224768958517e-04   1.2529953640846977e-04   1.3256618674370693e-04   1.1939471291853898e-04   1.2659530237542010e-04   1.1316919114111765e-04   1.1965189795978725e-04   1.0686548320869300e-04   1.1200590550361801e-04   1.0072921944782459e-04   1.0395439697024792e-04   9.4999571355045378e-05   9.5810032749400027e-05   8.9899909795752964e-05   8.7888893742239622e-05   8.5629062784359447e-05   8.0498168901076258e-05   8.2353515961933446e-05   7.3924177778602880e-05   8.0200864452321355e-05   6.8421197438826452e-05   7.9254778414502653e-05   6.4201535290520694e-05   7.9551688128450419e-05   6.1427244625643154e-05   6.1142705549643102e-05   4.1991287620769458e-05   6.4514316385064305e-05   4.2690878437316566e-05   6.9638710037171311e-05   4.5641314876940181e-05   7.6318478849058058e-05   5.0728767733441734e-05   8.4296085580365515e-05   5.7757073817315395e-05   9.3263765125460376e-05   6.6455227098737954e-05   1.0287539789411880e-04   7.6487794318119473e-05   1.1275988540378304e-04   8.7467843320453896e-05   1.2253550313924175e-04   9.8971876344781232e-05   1.3182467017989140e-04   1.1055618451976445e-04   1.4026856090223097e-04   1.2177398672056818e-04   1.4754099175061684e-04   1.3219268746580856e-04   1.5336104531100074e-04   1.4141058552748841e-04   1.5750394357719183e-04   1.4907238736885085e-04   1.5980975045313961e-04   1.5488292650091238e-04   1.6018956758274036e-04   1.5861855955684375e-04   1.5862898433981207e-04   1.6013579967925771e-04   1.5518864857262199e-04   1.5937685429606962e-04   1.5000193546688346e-04   1.5637185349045424e-04   1.4326980347228357e-04   1.5123768242898491e-04   1.3525303440662477e-04   1.4417346187073799e-04   1.2626215551859776e-04   1.3545284968484797e-04   1.1664543065645674e-04   1.2541345866553884e-04   1.0677538238835936e-04   1.1444379711805215e-04   9.7034364142945553e-05   1.0296823449237076e-04   8.7799739032388540e-05   9.1430571153026374e-05   7.9429238558085600e-05   8.0276846307711806e-05   7.2247069218490722e-05   6.9938049119186820e-05   6.6531308259547761e-05   6.0813403927168496e-05   6.2503082348959365e-05   5.3254881042563472e-05   6.0317956563622683e-05   4.7553540341214565e-05   6.0059878164344223e-05   4.3928247104976065e-05   4.3677561305062944e-05   2.6847967930948990e-05   4.7832382369253839e-05   2.7993322071257103e-05   5.4335850427386709e-05   3.1956839300823167e-05   6.2937764309495031e-05   3.8585872792134563e-05   7.3306970822234566e-05   4.7625198695452160e-05   8.5044082552962412e-05   5.8726765342620151e-05   9.7696859784952741e-05   7.1463056887458763e-05   1.1077765235417440e-04   8.5343546531281724e-05   1.2378222015214750e-04   9.9833596521695664e-05   1.3620920001317297e-04   1.1437506922712161e-04   1.4757946381726628e-04   1.2840784932039719e-04   1.5745461854984282e-04   1.4139144368988506e-04   1.6545393348975194e-04   1.5282582421576965e-04   1.7126904130045843e-04   1.6227070893051529e-04   1.74675846