<?xml version="1.0"?>
<VTKFile type="UnstructuredGrid"  version="0.1"  >
<UnstructuredGrid>
<Piece  NumberOfPoints="1089" NumberOfCells="2048">
<Points>
<DataArray  type="Float64"  NumberOfComponents="3"  format="ascii">0 0 0  0.03125 0 0  0.0625 0 0  0.09375 0 0  0.125 0 0  0.15625 0 0  0.1875 0 0  0.21875 0 0  0.25 0 0  0.28125 0 0  0.3125 0 0  0.34375 0 0  0.375 0 0  0.40625 0 0  0.4375 0 0  0.46875 0 0  0.5 0 0  0.53125 0 0  0.5625 0 0  0.59375 0 0  0.625 0 0  0.65625 0 0  0.6875 0 0  0.71875 0 0  0.75 0 0  0.78125 0 0  0.8125 0 0  0.84375 0 0  0.875 0 0  0.90625 0 0  0.9375 0 0  0.96875 0 0  1 0 0  0 0.03125 0  0.03125 0.03125 0  0.0625 0.03125 0  0.09375 0.03125 0  0.125 0.03125 0  0.15625 0.03125 0  0.1875 0.03125 0  0.21875 0.03125 0  0.25 0.03125 0  0.28125 0.03125 0  0.3125 0.03125 0  0.34375 0.03125 0  0.375 0.03125 0  0.40625 0.03125 0  0.4375 0.03125 0  0.46875 0.03125 0  0.5 0.03125 0  0.53125 0.03125 0  0.5625 0.03125 0  0.59375 0.03125 0  0.625 0.03125 0  0.65625 0.03125 0  0.6875 0.03125 0  0.71875 0.03125 0  0.75 0.03125 0  0.78125 0.03125 0  0.8125 0.03125 0  0.84375 0.03125 0  0.875 0.03125 0  0.90625 0.03125 0  0.9375 0.03125 0  0.96875 0.03125 0  1 0.03125 0  0 0.0625 0  0.03125 0.0625 0  0.0625 0.0625 0  0.09375 0.0625 0  0.125 0.0625 0  0.15625 0.0625 0  0.1875 0.0625 0  0.21875 0.0625 0  0.25 0.0625 0  0.28125 0.0625 0  0.3125 0.0625 0  0.34375 0.0625 0  0.375 0.0625 0  0.40625 0.0625 0  0.4375 0.0625 0  0.46875 0.0625 0  0.5 0.0625 0  0.53125 0.0625 0  0.5625 0.0625 0  0.59375 0.0625 0  0.625 0.0625 0  0.65625 0.0625 0  0.6875 0.0625 0  0.71875 0.0625 0  0.75 0.0625 0  0.78125 0.0625 0  0.8125 0.0625 0  0.84375 0.0625 0  0.875 0.0625 0  0.90625 0.0625 0  0.9375 0.0625 0  0.96875 0.0625 0  1 0.0625 0  0 0.09375 0  0.03125 0.09375 0  0.0625 0.09375 0  0.09375 0.09375 0  0.125 0.09375 0  0.15625 0.09375 0  0.1875 0.09375 0  0.21875 0.09375 0  0.25 0.09375 0  0.28125 0.09375 0  0.3125 0.09375 0  0.34375 0.09375 0  0.375 0.09375 0  0.40625 0.09375 0  0.4375 0.09375 0  0.46875 0.09375 0  0.5 0.09375 0  0.53125 0.09375 0  0.5625 0.09375 0  0.59375 0.09375 0  0.625 0.09375 0  0.65625 0.09375 0  0.6875 0.09375 0  0.71875 0.09375 0  0.75 0.09375 0  0.78125 0.09375 0  0.8125 0.09375 0  0.84375 0.09375 0  0.875 0.09375 0  0.90625 0.09375 0  0.9375 0.09375 0  0.96875 0.09375 0  1 0.09375 0  0 0.125 0  0.03125 0.125 0  0.0625 0.125 0  0.09375 0.125 0  0.125 0.125 0  0.15625 0.125 0  0.1875 0.125 0  0.21875 0.125 0  0.25 0.125 0  0.28125 0.125 0  0.3125 0.125 0  0.34375 0.125 0  0.375 0.125 0  0.40625 0.125 0  0.4375 0.125 0  0.46875 0.125 0  0.5 0.125 0  0.53125 0.125 0  0.5625 0.125 0  0.59375 0.125 0  0.625 0.125 0  0.65625 0.125 0  0.6875 0.125 0  0.71875 0.125 0  0.75 0.125 0  0.78125 0.125 0  0.8125 0.125 0  0.84375 0.125 0  0.875 0.125 0  0.90625 0.125 0  0.9375 0.125 0  0.96875 0.125 0  1 0.125 0  0 0.15625 0  0.03125 0.15625 0  0.0625 0.15625 0  0.09375 0.15625 0  0.125 0.15625 0  0.15625 0.15625 0  0.1875 0.15625 0  0.21875 0.15625 0  0.25 0.15625 0  0.28125 0.15625 0  0.3125 0.15625 0  0.34375 0.15625 0  0.375 0.15625 0  0.40625 0.15625 0  0.4375 0.15625 0  0.46875 0.15625 0  0.5 0.15625 0  0.53125 0.15625 0  0.5625 0.15625 0  0.59375 0.15625 0  0.625 0.15625 0  0.65625 0.15625 0  0.6875 0.15625 0  0.71875 0.15625 0  0.75 0.15625 0  0.78125 0.15625 0  0.8125 0.15625 0  0.84375 0.15625 0  0.875 0.15625 0  0.90625 0.15625 0  0.9375 0.15625 0  0.96875 0.15625 0  1 0.15625 0  0 0.1875 0  0.03125 0.1875 0  0.0625 0.1875 0  0.09375 0.1875 0  0.125 0.1875 0  0.15625 0.1875 0  0.1875 0.1875 0  0.21875 0.1875 0  0.25 0.1875 0  0.28125 0.1875 0  0.3125 0.1875 0  0.34375 0.1875 0  0.375 0.1875 0  0.40625 0.1875 0  0.4375 0.1875 0  0.46875 0.1875 0  0.5 0.1875 0  0.53125 0.1875 0  0.5625 0.1875 0  0.59375 0.1875 0  0.625 0.1875 0  0.65625 0.1875 0  0.6875 0.1875 0  0.71875 0.1875 0  0.75 0.1875 0  0.78125 0.1875 0  0.8125 0.1875 0  0.84375 0.1875 0  0.875 0.1875 0  0.90625 0.1875 0  0.9375 0.1875 0  0.96875 0.1875 0  1 0.1875 0  0 0.21875 0  0.03125 0.21875 0  0.0625 0.21875 0  0.09375 0.21875 0  0.125 0.21875 0  0.15625 0.21875 0  0.1875 0.21875 0  0.21875 0.21875 0  0.25 0.21875 0  0.28125 0.21875 0  0.3125 0.21875 0  0.34375 0.21875 0  0.375 0.21875 0  0.40625 0.21875 0  0.4375 0.21875 0  0.46875 0.21875 0  0.5 0.21875 0  0.53125 0.21875 0  0.5625 0.21875 0  0.59375 0.21875 0  0.625 0.21875 0  0.65625 0.21875 0  0.6875 0.21875 0  0.71875 0.21875 0  0.75 0.21875 0  0.78125 0.21875 0  0.8125 0.21875 0  0.84375 0.21875 0  0.875 0.21875 0  0.90625 0.21875 0  0.9375 0.21875 0  0.96875 0.21875 0  1 0.21875 0  0 0.25 0  0.03125 0.25 0  0.0625 0.25 0  0.09375 0.25 0  0.125 0.25 0  0.15625 0.25 0  0.1875 0.25 0  0.21875 0.25 0  0.25 0.25 0  0.28125 0.25 0  0.3125 0.25 0  0.34375 0.25 0  0.375 0.25 0  0.40625 0.25 0  0.4375 0.25 0  0.46875 0.25 0  0.5 0.25 0  0.53125 0.25 0  0.5625 0.25 0  0.59375 0.25 0  0.625 0.25 0  0.65625 0.25 0  0.6875 0.25 0  0.71875 0.25 0  0.75 0.25 0  0.78125 0.25 0  0.8125 0.25 0  0.84375 0.25 0  0.875 0.25 0  0.90625 0.25 0  0.9375 0.25 0  0.96875 0.25 0  1 0.25 0  0 0.28125 0  0.03125 0.28125 0  0.0625 0.28125 0  0.09375 0.28125 0  0.125 0.28125 0  0.15625 0.28125 0  0.1875 0.28125 0  0.21875 0.28125 0  0.25 0.28125 0  0.28125 0.28125 0  0.3125 0.28125 0  0.34375 0.28125 0  0.375 0.28125 0  0.40625 0.28125 0  0.4375 0.28125 0  0.46875 0.28125 0  0.5 0.28125 0  0.53125 0.28125 0  0.5625 0.28125 0  0.59375 0.28125 0  0.625 0.28125 0  0.65625 0.28125 0  0.6875 0.28125 0  0.71875 0.28125 0  0.75 0.28125 0  0.78125 0.28125 0  0.8125 0.28125 0  0.84375 0.28125 0  0.875 0.28125 0  0.90625 0.28125 0  0.9375 0.28125 0  0.96875 0.28125 0  1 0.28125 0  0 0.3125 0  0.03125 0.3125 0  0.0625 0.3125 0  0.09375 0.3125 0  0.125 0.3125 0  0.15625 0.3125 0  0.1875 0.3125 0  0.21875 0.3125 0  0.25 0.3125 0  0.28125 0.3125 0  0.3125 0.3125 0  0.34375 0.3125 0  0.375 0.3125 0  0.40625 0.3125 0  0.4375 0.3125 0  0.46875 0.3125 0  0.5 0.3125 0  0.53125 0.3125 0  0.5625 0.3125 0  0.59375 0.3125 0  0.625 0.3125 0  0.65625 0.3125 0  0.6875 0.3125 0  0.71875 0.3125 0  0.75 0.3125 0  0.78125 0.3125 0  0.8125 0.3125 0  0.84375 0.3125 0  0.875 0.3125 0  0.90625 0.3125 0  0.9375 0.3125 0  0.96875 0.3125 0  1 0.3125 0  0 0.34375 0  0.03125 0.34375 0  0.0625 0.34375 0  0.09375 0.34375 0  0.125 0.34375 0  0.15625 0.34375 0  0.1875 0.34375 0  0.21875 0.34375 0  0.25 0.34375 0  0.28125 0.34375 0  0.3125 0.34375 0  0.34375 0.34375 0  0.375 0.34375 0  0.40625 0.34375 0  0.4375 0.34375 0  0.46875 0.34375 0  0.5 0.34375 0  0.53125 0.34375 0  0.5625 0.34375 0  0.59375 0.34375 0  0.625 0.34375 0  0.65625 0.34375 0  0.6875 0.34375 0  0.71875 0.34375 0  0.75 0.34375 0  0.78125 0.34375 0  0.8125 0.34375 0  0.84375 0.34375 0  0.875 0.34375 0  0.90625 0.34375 0  0.9375 0.34375 0  0.96875 0.34375 0  1 0.34375 0  0 0.375 0  0.03125 0.375 0  0.0625 0.375 0  0.09375 0.375 0  0.125 0.375 0  0.15625 0.375 0  0.1875 0.375 0  0.21875 0.375 0  0.25 0.375 0  0.28125 0.375 0  0.3125 0.375 0  0.34375 0.375 0  0.375 0.375 0  0.40625 0.375 0  0.4375 0.375 0  0.46875 0.375 0  0.5 0.375 0  0.53125 0.375 0  0.5625 0.375 0  0.59375 0.375 0  0.625 0.375 0  0.65625 0.375 0  0.6875 0.375 0  0.71875 0.375 0  0.75 0.375 0  0.78125 0.375 0  0.8125 0.375 0  0.84375 0.375 0  0.875 0.375 0  0.90625 0.375 0  0.9375 0.375 0  0.96875 0.375 0  1 0.375 0  0 0.40625 0  0.03125 0.40625 0  0.0625 0.40625 0  0.09375 0.40625 0  0.125 0.40625 0  0.15625 0.40625 0  0.1875 0.40625 0  0.21875 0.40625 0  0.25 0.40625 0  0.28125 0.40625 0  0.3125 0.40625 0  0.34375 0.40625 0  0.375 0.40625 0  0.40625 0.40625 0  0.4375 0.40625 0  0.46875 0.40625 0  0.5 0.40625 0  0.53125 0.40625 0  0.5625 0.40625 0  0.59375 0.40625 0  0.625 0.40625 0  0.65625 0.40625 0  0.6875 0.40625 0  0.71875 0.40625 0  0.75 0.40625 0  0.78125 0.40625 0  0.8125 0.40625 0  0.84375 0.40625 0  0.875 0.40625 0  0.90625 0.40625 0  0.9375 0.40625 0  0.96875 0.40625 0  1 0.40625 0  0 0.4375 0  0.03125 0.4375 0  0.0625 0.4375 0  0.09375 0.4375 0  0.125 0.4375 0  0.15625 0.4375 0  0.1875 0.4375 0  0.21875 0.4375 0  0.25 0.4375 0  0.28125 0.4375 0  0.3125 0.4375 0  0.34375 0.4375 0  0.375 0.4375 0  0.40625 0.4375 0  0.4375 0.4375 0  0.46875 0.4375 0  0.5 0.4375 0  0.53125 0.4375 0  0.5625 0.4375 0  0.59375 0.4375 0  0.625 0.4375 0  0.65625 0.4375 0  0.6875 0.4375 0  0.71875 0.4375 0  0.75 0.4375 0  0.78125 0.4375 0  0.8125 0.4375 0  0.84375 0.4375 0  0.875 0.4375 0  0.90625 0.4375 0  0.9375 0.4375 0  0.96875 0.4375 0  1 0.4375 0  0 0.46875 0  0.03125 0.46875 0  0.0625 0.46875 0  0.09375 0.46875 0  0.125 0.46875 0  0.15625 0.46875 0  0.1875 0.46875 0  0.21875 0.46875 0  0.25 0.46875 0  0.28125 0.46875 0  0.3125 0.46875 0  0.34375 0.46875 0  0.375 0.46875 0  0.40625 0.46875 0  0.4375 0.46875 0  0.46875 0.46875 0  0.5 0.46875 0  0.53125 0.46875 0  0.5625 0.46875 0  0.59375 0.46875 0  0.625 0.46875 0  0.65625 0.46875 0  0.6875 0.46875 0  0.71875 0.46875 0  0.75 0.46875 0  0.78125 0.46875 0  0.8125 0.46875 0  0.84375 0.46875 0  0.875 0.46875 0  0.90625 0.46875 0  0.9375 0.46875 0  0.96875 0.46875 0  1 0.46875 0  0 0.5 0  0.03125 0.5 0  0.0625 0.5 0  0.09375 0.5 0  0.125 0.5 0  0.15625 0.5 0  0.1875 0.5 0  0.21875 0.5 0  0.25 0.5 0  0.28125 0.5 0  0.3125 0.5 0  0.34375 0.5 0  0.375 0.5 0  0.40625 0.5 0  0.4375 0.5 0  0.46875 0.5 0  0.5 0.5 0  0.53125 0.5 0  0.5625 0.5 0  0.59375 0.5 0  0.625 0.5 0  0.65625 0.5 0  0.6875 0.5 0  0.71875 0.5 0  0.75 0.5 0  0.78125 0.5 0  0.8125 0.5 0  0.84375 0.5 0  0.875 0.5 0  0.90625 0.5 0  0.9375 0.5 0  0.96875 0.5 0  1 0.5 0  0 0.53125 0  0.03125 0.53125 0  0.0625 0.53125 0  0.09375 0.53125 0  0.125 0.53125 0  0.15625 0.53125 0  0.1875 0.53125 0  0.21875 0.53125 0  0.25 0.53125 0  0.28125 0.53125 0  0.3125 0.53125 0  0.34375 0.53125 0  0.375 0.53125 0  0.40625 0.53125 0  0.4375 0.53125 0  0.46875 0.53125 0  0.5 0.53125 0  0.53125 0.53125 0  0.5625 0.53125 0  0.59375 0.53125 0  0.625 0.53125 0  0.65625 0.53125 0  0.6875 0.53125 0  0.71875 0.53125 0  0.75 0.53125 0  0.78125 0.531
[...]
<CellData  Scalars="f_59151"> 
<DataArray  type="Float64"  Name="f_59151"  format="ascii">9.3782818782639213e-10   9.5387109769109662e-10   2.3771703946746502e-09   3.2259915990700848e-09   4.4860331060500621e-09   6.8906073172810413e-09   7.1817933281401489e-09   1.1859760340934491e-08   1.0361045141043079e-08   1.7938659436871311e-08   1.3902226832614169e-08   2.4892972556002096e-08   1.7669842049440540e-08   3.2455873077300768e-08   2.1519553269179930e-08   4.0337416225600515e-08   2.5303730485697823e-08   4.8235358208742697e-08   2.8877157033127973e-08   5.5846688409838298e-08   3.2102643509491808e-08   6.2879279939012582e-08   3.4856325749446578e-08   6.9063145865164810e-08   3.7032442631241569e-08   7.4160844230977601e-08   3.8547411731501938e-08   7.7976625051390336e-08   3.9343048057380850e-08   8.0363967447680448e-08   3.9388803625550477e-08   8.1231218900513567e-08   3.8682942786238082e-08   8.0545121688547153e-08   3.7252608635716859e-08   7.8332092317156154e-08   3.5152778087979339e-08   7.4677205497183621e-08   3.2464145543761703e-08   6.9720921853803941e-08   2.9290015964985109e-08   6.3653684696130336e-08   2.5752326027391735e-08   5.6708592590285929e-08   2.1986945667367048e-08   4.9152428233086136e-08   1.8138441134516897e-08   4.1275388023016977e-08   1.4354505154909501e-08   3.3379910001518151e-08   1.0780282975950308e-08   2.5769042537447716e-08   7.5528531215827827e-09   1.8734840130251625e-08   4.7961789159488333e-09   1.2547336368338495e-08   2.6169817965465871e-09   7.4447753600037918e-09   1.1023373699147417e-09   3.6260919807385345e-09   3.2078104697478706e-10   1.2473661010866140e-09   2.3512670096143986e-10   4.2565188474854086e-10   5.2229474815791109e-09   4.4268469918817051e-09   8.8676626761488199e-09   8.8803357264668450e-09   1.3760934756659729e-08   1.3760239507529991e-08   1.9721828597902420e-08   1.9679313840611892e-08   2.6525398597835161e-08   2.6417104769602947e-08   3.3913009645754533e-08   3.3719127742225653e-08   4.1602686453125918e-08   4.1307544743090770e-08   4.9300198766790447e-08   4.8892446878776137e-08   5.6710569604864040e-08   5.6183394415924842e-08   6.3549564648123555e-08   6.2900836235585964e-08   6.9554722974110191e-08   6.8787015615096791e-08   7.4495513839805931e-08   7.3615975577172728e-08   7.8182239461527870e-08   7.7202301869384835e-08   8.0473350513243515e-08   7.9408282811910471e-08   8.1280899766823456e-08   8.0149220748436131e-08   8.0573928707688001e-08   7.9396697152429156e-08   7.8379659714481448e-08   7.7179669600173848e-08   7.4782449488895732e-08   7.3583360520400738e-08   6.9920544559050647e-08   6.8745981440393376e-08   6.3980763496038796e-08   6.2853418954847795e-08   5.7191309764528002e-08   5.6132086619191385e-08   4.9812991077693837e-08   4.8840217557866512e-08   4.2129183750643041e-08   4.1257933617891046e-08   3.4434933409451543e-08   3.3676477430926602e-08   2.7025629121857896e-08   2.6387035054014892e-08   2.0185735414877847e-08   1.9669614467371889e-08   1.4178137718705560e-08   1.3782492996528037e-08   9.2348019484506165e-09   8.9528350019319692e-09   5.5497804595773324e-09   5.3692718306894783e-09   3.2763551148568902e-09   3.1776465355949584e-09   2.5317389101914647e-09   2.4819481350998136e-09   2.4856390899360916e-09   3.3538924388534776e-09   1.3009710643060209e-08   1.0687827739565310e-08   1.7892988666506760e-08   1.7900130787733841e-08   2.3710363615412256e-08   2.3707478657184957e-08   3.0259160043356478e-08   3.0228991849069459e-08   3.7298990514970362e-08   3.7228518354276778e-08   4.4565523136276901e-08   4.4444903643626843e-08   5.1782968859783319e-08   5.1605014534790916e-08   5.8675905617868781e-08   5.8435922126793913e-08   6.4980534451983711e-08   6.4676302795723820e-08   7.0455192780911186e-08   7.0086971840875691e-08   7.4889851832721207e-08   7.4460338018602486e-08   7.8114304971930150e-08   7.7628520508725466e-08   8.0004772803821218e-08   7.9469873451109021e-08   8.0488694361683719e-08   7.9913698269817078e-08   7.9547533391354810e-08   7.8942979364636154e-08   7.7217499238696114e-08   7.6595046916690118e-08   7.3588158621084845e-08   7.2960145971648338e-08   6.8798993652221015e-08   6.8177969117078175e-08   6.3034039272930311e-08   6.2432287096691598e-08   5.6514806473966058e-08   5.5943884225229790e-08   4.9491763611154817e-08   4.8962070622219313e-08   4.2234704692900234e-08   4.1755098865778306e-08   3.5022379991825857e-08   3.4599857478764273e-08   2.8131802185216347e-08   2.7771248132919385e-08   2.1827676204994409e-08   2.1531680912519004e-08   1.6352447118475041e-08   1.6121150961543676e-08   1.1917547935216744e-08   1.1748408525653418e-08   8.6966197116473941e-09   8.5838384119609166e-09   6.8218876754920988e-09   6.7548902811803090e-09   6.3857163428540155e-09   6.3453643098391788e-09   7.4509427573368926e-09   7.4007587643831931e-09   7.5240278988302300e-09   9.9436323415100223e-09   2.4001736282506525e-08   1.9454083822031953e-08   2.9866951132818498e-08   2.9889046041556732e-08   3.6296865382516437e-08   3.6306025962545946e-08   4.3073362655271009e-08   4.3061059314676234e-08   4.9951675171043694e-08   4.9912307840189986e-08   5.6675765068631075e-08   5.6605536216298434e-08   6.2991598774899976e-08   6.2888021187441321e-08   6.8658756557502482e-08   6.8520513764753492e-08   7.3460653512399701e-08   7.3287598539254591e-08   7.7213383208760194e-08   7.7006560825839946e-08   7.9773059966533902e-08   7.9534700387810198e-08   8.1041492391046249e-08   8.0774957523710436e-08   8.0970031436478006e-08   8.0679710583121104e-08   7.9561477877573451e-08   7.9252637028188338e-08   7.6869993302592701e-08   7.6548585494757036e-08   7.2999027199799848e-08   7.2671473058785302e-08   6.8097344496303002e-08   6.7770292941542135e-08   6.2353308528909178e-08   6.2033388107379348e-08   5.5987640276607148e-08   5.5681211754626912e-08   4.9244932897776726e-08   4.8957853559761409e-08   4.2384249098939405e-08   4.2121658464327502e-08   3.5669166575686273e-08   3.5435301441206035e-08   2.9357664299447206e-08   2.9155706937189647e-08   2.3692263188850908e-08   2.3524217418776973e-08   1.8890857222228197e-08   1.8757426832863738e-08   1.5138713342068950e-08   1.5039112888661489e-08   1.2582216220682726e-08   1.2513748484298606e-08   1.1325155014384239e-08   1.1282188069228589e-08   1.1428819878969093e-08   1.1400385348811991e-08   1.2918131713636727e-08   1.2882550721654278e-08   1.5797949753812406e-08   1.5711306705954530e-08   1.5203538247410194e-08   1.9859878578225911e-08   3.7754598840803206e-08   3.0373493124570110e-08   4.4317590971571383e-08   4.4370504273023714e-08   5.1028318636881705e-08   5.1058518721766124e-08   5.7661232331405655e-08   5.7668694433569987e-08   6.3978734106168534e-08   6.3964085891850936e-08   6.9747029642756971e-08   6.9710913253025229e-08   7.4749028241923699e-08   7.4692024789611762e-08   7.8794809535139356e-08   7.8717575511254288e-08   8.1730038636623753e-08   8.1633478166973739e-08   8.3442473897248126e-08   8.3327874018565000e-08   8.3866574661929179e-08   8.3735682037242954e-08   8.2986168405229337e-08   8.2841208531441104e-08   8.0835145913654013e-08   8.0678793838798272e-08   7.7496194592749246e-08   7.7331507744817874e-08   7.3097637430187008e-08   7.2927960523457008e-08   6.7808508626826150e-08   6.7637359517430263e-08   6.1832059868706995e-08   6.1663004270388245e-08   5.5397949116987722e-08   5.5234471350359831e-08   4.8753413395064130e-08   4.8598789717890393e-08   4.2153766123543580e-08   4.2010946446517515e-08   3.5852586881341855e-08   3.5724089402639336e-08   3.0091987133068143e-08   2.9979807800624431e-08   2.5093341471970263e-08   2.4998874459200649e-08   2.1048875537182011e-08   2.0972828389333291e-08   1.8114509976346932e-08   1.8056770032403342e-08   1.6404396170304441e-08   1.6363747574156362e-08   1.5987685014210453e-08   1.5961156813595700e-08   1.6888323067849886e-08   1.6869707300751628e-08   1.9089222532541023e-08   1.9065817018164762e-08   2.2543311888965908e-08   2.2488974118846924e-08   2.7196427148514976e-08   2.7057043740634097e-08   2.5200852766728074e-08   3.2695568205932647e-08   5.3734640091349144e-08   4.3022890198111820e-08   6.0689237558947243e-08   6.0785307776057740e-08   6.7339010930633010e-08   6.7396241905560493e-08   7.3459909533284649e-08   7.3487722684010736e-08   7.8833204274786303e-08   7.8838375369838836e-08   8.3260755790186056e-08   8.3247849617284141e-08   8.6576532570696301e-08   8.6548567108406593e-08   8.8655087116682686e-08   8.8614136057908339e-08   8.9417461678426252e-08   8.9365109842347126e-08   8.8834769543472429e-08   8.8772420673596291e-08   8.6929575127270371e-08   8.6858639100508054e-08   8.3775157366477124e-08   8.3697147907559184e-08   7.9492755190457443e-08   7.9409324760712856e-08   7.4246936334023852e-08   7.4159868578400043e-08   6.8239284967193866e-08   6.8150459543203482e-08   6.1700659224631018e-08   6.1611999685004179e-08   5.4882320239795395e-08   5.4795732790735660e-08   4.8046275601382756e-08   4.7963584651833171e-08   4.1455209676360547e-08   4.1378094714609469e-08   3.5362389623269803e-08   3.5292326642467146e-08   3.0001938985284222e-08   2.9940147782302702e-08   2.5579861812529007e-08   2.5527256865327214e-08   2.2266182797236927e-08   2.2223317839475632e-08   2.0188549989764830e-08   2.0155530301799647e-08   1.9427639764268310e-08   1.9403942427953557e-08   2.0014734102520966e-08   1.9998806784696795e-08   2.1931955746222480e-08   2.1920322969495231e-08   2.5115939271200655e-08   2.5101260395160796e-08   2.9466367794525641e-08   2.9433319735420242e-08   3.4862190561893142e-08   3.4778891269108937e-08   4.1191261541229511e-08   4.0991546681999683e-08   3.7125289235598303e-08   4.7952067788654937e-08   7.1328830270812218e-08   5.6916907615181930e-08   7.8355699420039572e-08   7.8504353229493872e-08   8.4604836922176188e-08   8.4693162326597317e-08   8.9862779772636701e-08   8.9911063423649888e-08   9.3940928914968230e-08   9.3962490653467690e-08   9.6689086760095941e-08   9.6692373444284987e-08   9.8004674753469044e-08   9.7994951452222161e-08   9.7838473555776368e-08   9.7819043621852700e-08   9.6197417360099383e-08   9.6170441448365395e-08   9.3144765110022062e-08   9.3111782011899963e-08   8.8797874378422893e-08   8.8760115622596509e-08   8.3323783502525767e-08   8.3282351723493040e-08   7.6932831599159714e-08   7.6888791796487041e-08   6.9870590560690917e-08   6.9825007115181662e-08   6.2408432642918115e-08   6.2362373486383487e-08   5.4833102290210341e-08   5.4787624006969678e-08   4.7435695700112694e-08   4.7391818459220401e-08   4.0500473021243388e-08   4.0459151126264419e-08   3.4293934381447161e-08   3.4256026078880533e-08   2.9054581857589115e-08   2.9020820128567933e-08   2.4983766037254599e-08   2.4954729515778105e-08   2.2237980611088205e-08   2.2214059078127495e-08   2.0922926462034937e-08   2.0904265843540228e-08   2.1089626914611746e-08   2.1076019015154911e-08   2.2732854169009681e-08   2.2723495903645456e-08   2.5792152711579722e-08   2.5785117406946398e-08   3.0155873427216173e-08   3.0146971457434385e-08   3.5668967323158944e-08   3.5649342586013200e-08   4.2146036925873865e-08   4.2097182801744221e-08   4.9392723958287309e-08   4.9276260844786233e-08   5.7241795092422274e-08   5.6978581869293396e-08   5.0519244692159096e-08   6.5044419168888438e-08   8.9863730346567120e-08   7.1523450436323151e-08   9.6641315420151664e-08   9.6849315358392862e-08   1.0216500636290417e-07   1.0228699810705968e-07   1.0624064146875542e-07   1.0630924281784434e-07   1.0872001589599164e-07   1.0875561165654886e-07   1.0951148090360836e-07   1.0952652241095206e-07   1.0858602132903094e-07   1.0858799747234135e-07   1.0597962964525835e-07   1.0597302620143925e-07   1.0179251102598114e-07   1.0178005241589474e-07   9.6185490530288101e-08   9.6168901023143406e-08   8.9373936295326027e-08   8.9354392229409172e-08   8.1619518666937157e-08   8.1597907949504658e-08   7.3220162348814092e-08   7.3197226597560293e-08   6.4498595523343979e-08   6.4475002215399996e-08   5.5789943278347755e-08   5.5766317051238859e-08   4.7428844780439188e-08   4.7405775574227060e-08   3.9736590142769920e-08   3.9714628819739278e-08   3.3008771790381112e-08   3.2988419501134684e-08   2.7503925897085221e-08   2.7485620528949824e-08   2.3433603076470498e-08   2.3417703582553679e-08   2.0954256246125076e-08   2.0941022360393410e-08   2.0161271444431002e-08   2.0150830490277918e-08   2.1085400882078007e-08   2.1077681903690848e-08   2.3691797421543383e-08   2.3686389564610907e-08   2.7881814449480503e-08   2.7877659331506336e-08   3.3497757670249930e-08   3.3492490700618376e-08   4.0330916479607246e-08   4.0319483039881127e-08   4.8133577410314188e-08   4.8105374069796772e-08   5.6636553766746783e-08   5.6569596841310406e-08   6.5575497365373835e-08   6.5424620206144847e-08   7.4732805912864248e-08   7.4405819534161929e-08   6.4870386652887300e-08   8.3318583927094133e-08   1.0862965248843076e-07   8.6282963160904169e-08   1.1484599775916238e-07   1.1511750962041712e-07   1.1934680392121378e-07   1.1950368953192946e-07   1.2196516087566969e-07   1.2205361102374742e-07   1.2260204604854148e-07   1.2264995936656459e-07   1.2123281388555359e-07   1.2125677024295544e-07   1.1790939209220787e-07   1.1791911296752338e-07   1.1275878845061455e-07   1.1275992880164424e-07   1.0597836870578197e-07   1.0597422228208064e-07   9.7828290320420349e-08   9.7820807753867027e-08   8.8621476573035540e-08   8.8611860053555082e-08   7.8711555037943421e-08   7.8700597870695029e-08   6.8479237343482885e-08   6.8467512691514103e-08   5.8317666392183811e-08   5.8305628380170641e-08   4.8617293143707182e-08   4.8605327903350586e-08   3.9750862310009902e-08   3.9739310995900208e-08   3.2059082458363054e-08   3.2048248940105513e-08   2.5837530554833585e-08   2.5827680840158668e-08   2.1325294868047850e-08   2.1316651584295066e-08   1.8695795645230578e-08   1.8688527744628971e-08   1.8050143695041374e-08   1.8044347539581591e-08   1.9413308337358812e-08   1.9408969415342396e-08   2.2733276115002349e-08   2.2730187217909429e-08   2.7883302687306379e-08   2.7880887516463371e-08   3.4667313060469986e-08   3.4664250489342414e-08   4.2828525684974749e-08   4.2821963045990358e-08   5.2061529125254480e-08   5.2045461733240329e-08   6.2028447597209802e-08   6.1990425946109366e-08   7.2380726333801169e-08   7.2295232964857369e-08   8.2789908469797691e-08   8.2605118320713417e-08   9.2994509969537349e-08   9.2605851214107858e-08   7.9629512040421890e-08   1.0207483520702325e-07   1.2690744868619348e-07   1.0062960452241877e-07   1.3227201226031432e-07   1.3260861636836682e-07   1.3549140419089808e-07   1.3568310803362282e-07   1.3643284102028929e-07   1.3654025989656912e-07   1.3505341033367380e-07   1.3511222219024975e-07   1.3140140211264631e-07   1.3143235861534051e-07   1.2561401252651790e-07   1.2562904451925573e-07   1.1791162613086749e-07   1.1791753097433112e-07   1.0858897925416756e-07   1.0858961286127924e-07   9.8003563560241923e-08   9.8001121963487584e-08   8.6561703644736491e-08   8.6557459960358355e-08   7.4702822751019837e-08   7.4697543906283360e-08   6.2882481393943488e-08   6.2876659470555385e-08   5.1554825225936723e-08   5.1548803028448721e-08   4.1155105786524352e-08   4.1149142902001024e-08   3.2082938758743947e-08   3.2077244603751494e-08   2.4686938878615922e-08   2.4681687612443141e-08   1.9251319998666179e-08   1.9246655256146091e-08   1.5984975478640960e-08   1.5981008369846708e-08   1.5013461716135491e-08   1.5010261767617786e-08   1.6374201201000068e-08   1.6371775201767288e-08   2.0015107681778826e-08   2.0013353414536629e-08   2.5796724247081070e-08   2.5795330785198615e-08   3.3497869314690661e-08   3.3496105333369955e-08   4.2824728022777160e-08   4.2820999758634491e-08   5.3423345350793536e-08   5.3414288173059787e-08   6.4895640243575155e-08   6.4874277691314623e-08   7.6819491927930552e-08   7.6771547728784347e-08   8.8774387317028642e-08   8.8670961469017090e-08   1.0037602813674587e-07   1.0015912686565049e-07   1.1132714422607613e-07   1.1088109394647159e-07   9.4231179176817419e-08   1.2059423971833391e-07   1.4399613274996966e-07   1.1401298645018846e-07   1.4825092445357535e-07   1.4865164262834685e-07   1.4997932773349561e-07   1.5020449567617524e-07   1.4908822694243879e-07   1.4921324973248572e-07   1.4559559965878467e-07   1.4566395639767106e-07   1.3962582682739268e-07   1.3966236314576152e-07   1.3140245348312356e-07   1.3142122589203135e-07   1.2123804595469610e-07   1.2124693469206303e-07   1.0952121002302062e-07   1.0952460310834218e-07   9.6701062008203938e-08   9.6701397264481880e-08   8.3269611826038517e-08   8.3268251109093806e-08   6.9742644398397973e-08   6.9740362570440457e-08   5.6639776104961720e-08   5.6637030648320509e-08   4.4464416563077097e-08   4.4461493844421497e-08   3.3684383881388940e-08   3.3681476873850125e-08   2.4713905428319883e-08   2.4711153734072383e-08   1.7897688607432856e-08   1.7895197768357045e-08   1.3497670393470771e-08   1.3495519329401309e-08   1.1682954547894482e-08   1.1681194718401627e-08   1.2523326548113838e-08   1.2521972083424962e-08   1.5986604584315120e-08   1.5985607255256656e-08   2.1939948424872418e-08   2.1939142325782154e-08   3.0155117089026381e-08   3.0154100879758070e-08   4.0317556232842576e-08   4.0315447534735163e-08   5.2039130458232988e-08   5.2034061947000190e-08   6.4874333550092041e-08   6.4862433709610280e-08   7.8339979642991844e-08   7.8313336286277015e-08   9.1938825733364819e-08   9.1881458381646862e-08   1.0518853687621903e-07   1.0506849268996171e-07   1.1765934466249982e-07   1.1741325375194274e-07   1.2902763304695845e-07   1.2853050650373625e-07   1.0811543624072930e-07   1.3816633182220483e-07   1.5923994504747524e-07   1.2591941486928426e-07   1.6216946375545486e-07   1.6263084048344728e-07   1.6225440258520079e-07   1.6251045079508252e-07   1.5944531451840829e-07   1.5958606139139417e-07   1.5382350637733300e-07   1.5389998318456103e-07   1.4558969245092751e-07   1.4563062356401279e-07   1.3505154513330893e-07   1.3507295846337563e-07   1.2260909271978832e-07   1.2261985351015986e-07   1.0873771913097566e-07   1.0874269323640193e-07   9.3968950724893129e-08   9.3970794663265399e-08   7.8869488455233979e-08   7.8869651167659024e-08   6.4019123219946513e-08   6.4018400248880547e-08   4.9988283401069186e-08   4.9987119786458218e-08   3.7316019057227820e-08   3.7314672704533565e-08   2.6489235176213835e-08   2.6487863545837042e-08   1.7923953036571594e-08   1.7922658015308408e-08   1.1949309489762486e-08   1.1948159347607257e-08   8.7949041927334578e-09   8.7939422531756967e-09   8.5819801965357186e-09   8.5812239346885298e-09   1.1318780230180660e-08   1.1318209638883932e-08   1.6900266946876775e-08   1.6899795034533556e-08   2.5112239308637190e-08   2.5111647694910796e-08   3.5639730685288201e-08   3.5638534740638538e-08   4.8079453087200750e-08   4.8076625307937594e-08   6.1955980341715652e-08   6.1949391481222403e-08   7.6741380303009454e-08   7.6726684652769555e-08   9.1878180415524442e-08   9.1846616856989739e-08   1.0680600500034885e-07   1.0674009938543581e-07   1.2099318704910154e-07   1.2085841191242854e-07   1.3397658620335325e-07   1.3370523393561297e-07   1.4541668365044150e-07   1.4487663701095281e-07   1.2074946754622488e-07   1.5411657515571467e-07   1.7205369243395587e-07   1.3589172860205173e-07   1.7349324092776310e-07   1.7400949674815967e-07   1.7184526228607523e-07   1.7212846602214847e-07   1.6710628949114338e-07   1.6726037986689616e-07   1.5942096051323359e-07   1.5950399713775301e-07   1.4906363548032453e-07   1.4910786750430490e-07   1.3642066741270419e-07   1.3644386930327904e-07   1.2197147493534675e-07   1.2198336179080362e-07   1.0626780328636651e-07   1.0627364272485387e-07   8.9911215954473679e-08   8.9913844744629745e-08   7.3529248055044485e-08   7.3530187218991290e-08   5.7750887676755448e-08   5.7750952780736655e-08   4.3182184047949008e-08   4.3181815619019433e-08   3.0382838511295076e-08   3.0382278826607108e-08   1.98446322