<?xml version="1.0"?>
<VTKFile type="UnstructuredGrid"  version="0.1"  >
<UnstructuredGrid>
<Piece  NumberOfPoints="81" NumberOfCells="128">
<Points>
<DataArray  type="Float64"  NumberOfComponents="3"  format="ascii">0 0 0  0.125 0 0  0.25 0 0  0.375 0 0  0.5 0 0  0.625 0 0  0.75 0 0  0.875 0 0  1 0 0  0 0.125 0  0.125 0.125 0  0.25 0.125 0  0.375 0.125 0  0.5 0.125 0  0.625 0.125 0  0.75 0.125 0  0.875 0.125 0  1 0.125 0  0 0.25 0  0.125 0.25 0  0.25 0.25 0  0.375 0.25 0  0.5 0.25 0  0.625 0.25 0  0.75 0.25 0  0.875 0.25 0  1 0.25 0  0 0.375 0  0.125 0.375 0  0.25 0.375 0  0.375 0.375 0  0.5 0.375 0  0.625 0.375 0  0.75 0.375 0  0.875 0.375 0  1 0.375 0  0 0.5 0  0.125 0.5 0  0.25 0.5 0  0.375 0.5 0  0.5 0.5 0  0.625 0.5 0  0.75 0.5 0  0.875 0.5 0  1 0.5 0  0 0.625 0  0.125 0.625 0  0.25 0.625 0  0.375 0.625 0  0.5 0.625 0  0.625 0.625 0  0.75 0.625 0  0.875 0.625 0  1 0.625 0  0 0.75 0  0.125 0.75 0  0.25 0.75 0  0.375 0.75 0  0.5 0.75 0  0.625 0.75 0  0.75 0.75 0  0.875 0.75 0  1 0.75 0  0 0.875 0  0.125 0.875 0  0.25 0.875 0  0.375 0.875 0  0.5 0.875 0  0.625 0.875 0  0.75 0.875 0  0.875 0.875 0  1 0.875 0  0 1 0  0.125 1 0  0.25 1 0  0.375 1 0  0.5 1 0  0.625 1 0  0.75 1 0  0.875 1 0  1 1 0  </DataArray>
</Points>
<Cells>
<DataArray  type="UInt32"  Name="connectivity"  format="ascii">0 1 10  0 9 10  1 2 11  1 10 11  2 3 12  2 11 12  3 4 13  3 12 13  4 5 14  4 13 14  5 6 15  5 14 15  6 7 16  6 15 16  7 8 17  7 16 17  9 10 19  9 18 19  10 11 20  10 19 20  11 12 21  11 20 21  12 13 22  12 21 22  13 14 23  13 22 23  14 15 24  14 23 24  15 16 25  15 24 25  16 17 26  16 25 26  18 19 28  18 27 28  19 20 29  19 28 29  20 21 30  20 29 30  21 22 31  21 30 31  22 23 32  22 31 32  23 24 33  23 32 33  24 25 34  24 33 34  25 26 35  25 34 35  27 28 37  27 36 37  28 29 38  28 37 38  29 30 39  29 38 39  30 31 40  30 39 40  31 32 41  31 40 41  32 33 42  32 41 42  33 34 43  33 42 43  34 35 44  34 43 44  36 37 46  36 45 46  37 38 47  37 46 47  38 39 48  38 47 48  39 40 49  39 48 49  40 41 50  40 49 50  41 42 51  41 50 51  42 43 52  42 51 52  43 44 53  43 52 53  45 46 55  45 54 55  46 47 56  46 55 56  47 48 57  47 56 57  48 49 58  48 57 58  49 50 59  49 58 59  50 51 60  50 59 60  51 52 61  51 60 61  52 53 62  52 61 62  54 55 64  54 63 64  55 56 65  55 64 65  56 57 66  56 65 66  57 58 67  57 66 67  58 59 68  58 67 68  59 60 69  59 68 69  60 61 70  60 69 70  61 62 71  61 70 71  63 64 73  63 72 73  64 65 74  64 73 74  65 66 75  65 74 75  66 67 76  66 75 76  67 68 77  67 76 77  68 69 78  68 77 78  69 70 79  69 78 79  70 71 80  70 79 80  </DataArray>
<DataArray  type="UInt32"  Name="offsets"  format="ascii">3 6 9 12 15 18 21 24 27 30 33 36 39 42 45 48 51 54 57 60 63 66 69 72 75 78 81 84 87 90 93 96 99 102 105 108 111 114 117 120 123 126 129 132 135 138 141 144 147 150 153 156 159 162 165 168 171 174 177 180 183 186 189 192 195 198 201 204 207 210 213 216 219 222 225 228 231 234 237 240 243 246 249 252 255 258 261 264 267 270 273 276 279 282 285 288 291 294 297 300 303 306 309 312 315 318 321 324 327 330 333 336 339 342 345 348 351 354 357 360 363 366 369 372 375 378 381 384 </DataArray>
<DataArray  type="UInt8"  Name="types"  format="ascii">5 5 5 5 5 5 5 5 5 5 5 5 5 5 5 5 5 5 5 5 5 5 5 5 5 5 5 5 5 5 5 5 5 5 5 5 5 5 5 5 5 5 5 5 5 5 5 5 5 5 5 5 5 5 5 5 5 5 5 5 5 5 5 5 5 5 5 5 5 5 5 5 5 5 5 5 5 5 5 5 5 5 5 5 5 5 5 5 5 5 5 5 5 5 5 5 5 5 5 5 5 5 5 5 5 5 5 5 5 5 5 5 5 5 5 5 5 5 5 5 5 5 5 5 5 5 5 5 </DataArray>
</Cells>
<CellData  Scalars="f_35190"> 
<DataArray  type="Float64"  Name="f_35190"  format="ascii">8.3672340943947577e-40   8.3672340943947577e-40   1.6020192107560694e-39   1.6020192107560694e-39   2.0739516215679704e-39   2.0739516215679704e-39   1.6555899168482315e-39   1.6555899168482315e-39   1.4999797705805246e-39   1.4999797705805246e-39   1.1040986300244615e-39   1.1040986300244615e-39   2.8571043249152821e-39   2.8571043249152821e-39   8.1631552140436718e-40   8.1631552140436718e-40   9.8978256970279457e-40   9.8978256970279457e-40   1.2142693380889939e-38   1.2142693380889939e-38   7.3041106770657916e-39   7.3041106770657916e-39   2.7410424335468651e-38   2.7410424335468651e-38   1.5471730116617131e-38   1.5471730116617131e-38   2.4208857181648238e-39   2.4208857181648238e-39   1.5025307565849130e-39   1.5025307565849130e-39   4.8978931284262018e-40   4.8978931284262018e-40   1.8386231626631163e-39   1.8386231626631163e-39   5.4871708954399795e-39   5.4871708954399795e-39   2.2128657637327329e-38   2.2128657637327329e-38   6.2430599358653867e-38   6.2430599358653867e-38   8.0084458847087562e-38   8.0084458847087562e-38   1.1402907439617253e-39   1.1402907439617253e-39   6.0458368304010890e-39   6.0458368304010890e-39   5.2830920150888788e-39   5.2830920150888788e-39   1.6836507628965074e-39   1.6836507628965074e-39   1.2767684951965164e-38   1.2767684951965164e-38   1.1683515900100001e-38   1.1683515900100001e-38   2.0939340131093786e-38   2.0939340131093786e-38   2.3087270346789007e-38   2.3087270346789007e-38   6.8672543238142377e-39   6.8672543238142377e-39   5.3876824412688227e-39   5.3876824412688227e-39   5.8162480900061106e-40   5.8162480900061106e-40   4.2856564873729276e-39   4.2856564873729276e-39   6.0917545784800898e-39   6.0917545784800898e-39   4.5713669198644508e-39   4.5713669198644508e-39   5.0607177819875710e-39   5.0607177819875710e-39   7.5840813910474457e-39   7.5840813910474457e-39   6.7448069956035792e-39   6.7448069956035792e-39   9.3978324401677721e-39   9.3978324401677721e-39   3.9999460548813984e-39   3.9999460548813984e-39   2.0407888035109179e-40   2.0407888035109179e-40   2.1326242996689079e-39   2.1326242996689079e-39   4.7346300241453287e-39   4.7346300241453287e-39   6.6121557233753738e-39   6.6121557233753738e-39   3.7914029490226232e-39   3.7914029490226232e-39   1.0357003177817900e-38   1.0357003177817900e-38   1.8775256992300434e-39   1.8775256992300434e-39   3.4693409659685602e-39   3.4693409659685602e-39   4.0815776070218359e-40   4.0815776070218359e-40   7.3468396926392986e-40   7.3468396926392986e-40   1.1893972245462060e-39   1.1893972245462060e-39   1.5691752659495656e-39   1.5691752659495656e-39   7.5764284330342815e-40   7.5764284330342815e-40   4.0815776070218359e-40   4.0815776070218359e-40   1.6326310428087344e-39   1.6326310428087344e-39   5.3060508891283802e-40   5.3060508891283802e-40   7.3468396926392986e-40   7.3468396926392986e-40   6.6325636114104830e-40   6.6325636114104830e-40   1.9693611953880333e-39   1.9693611953880333e-39   7.4775777253642228e-40   7.4775777253642228e-40   1.2066163800758288e-39   1.2066163800758288e-39   5.8162480900061106e-40   5.8162480900061106e-40   1.5612034346858499e-39   1.5612034346858499e-39   1.3265127222820951e-40   1.3265127222820951e-40   </DataArray> 
</CellData> 
</Piece>
</UnstructuredGrid>
</VTKFile>