<?xml version="1.0"?>
<VTKFile type="UnstructuredGrid"  version="0.1"  >
<UnstructuredGrid>
<Piece  NumberOfPoints="25" NumberOfCells="32">
<Points>
<DataArray  type="Float64"  NumberOfComponents="3"  format="ascii">0 0 0  0.25 0 0  0.5 0 0  0.75 0 0  1 0 0  0 0.25 0  0.25 0.25 0  0.5 0.25 0  0.75 0.25 0  1 0.25 0  0 0.5 0  0.25 0.5 0  0.5 0.5 0  0.75 0.5 0  1 0.5 0  0 0.75 0  0.25 0.75 0  0.5 0.75 0  0.75 0.75 0  1 0.75 0  0 1 0  0.25 1 0  0.5 1 0  0.75 1 0  1 1 0  </DataArray>
</Points>
<Cells>
<DataArray  type="UInt32"  Name="connectivity"  format="ascii">0 1 6  0 5 6  1 2 7  1 6 7  2 3 8  2 7 8  3 4 9  3 8 9  5 6 11  5 10 11  6 7 12  6 11 12  7 8 13  7 12 13  8 9 14  8 13 14  10 11 16  10 15 16  11 12 17  11 16 17  12 13 18  12 17 18  13 14 19  13 18 19  15 16 21  15 20 21  16 17 22  16 21 22  17 18 23  17 22 23  18 19 24  18 23 24  </DataArray>
<DataArray  type="UInt32"  Name="offsets"  format="ascii">3 6 9 12 15 18 21 24 27 30 33 36 39 42 45 48 51 54 57 60 63 66 69 72 75 78 81 84 87 90 93 96 </DataArray>
<DataArray  type="UInt8"  Name="types"  format="ascii">5 5 5 5 5 5 5 5 5 5 5 5 5 5 5 5 5 5 5 5 5 5 5 5 5 5 5 5 5 5 5 5 </DataArray>
</Cells>
<CellData  Scalars="f_36129"> 
<DataArray  type="Float64"  Name="f_36129"  format="ascii">4.8388290373569884e-03   6.6529094030854698e-03   1.0945927728609105e-02   6.9110081060635466e-03   7.4832277168677399e-03   9.2983391275048444e-03   1.2675553571264101e-03   9.1130290510530523e-03   8.6946612727248074e-03   1.2436520642063255e-02   2.2993394377222500e-03   3.3054844670584952e-03   3.9048461952621905e-03   1.2288118718781240e-03   1.0271968707729595e-02   1.0296551256002583e-02   1.1092983936210934e-02   6.0866242706590773e-03   3.3773523135837936e-03   5.2585509671164155e-03   4.4102589169269018e-03   5.7214398182411780e-03   1.2199023626178109e-02   6.4936624228505591e-03   7.2821592123591510e-03   2.5179579669653727e-04   1.1968457619916426e-02   8.7655694161742417e-03   7.8485563177185386e-03   1.3878463629561417e-02   3.2080982883205930e-03   5.4223807294290034e-03   </DataArray> 
</CellData> 
</Piece>
</UnstructuredGrid>
</VTKFile>