<?xml version="1.0"?>
<VTKFile type="UnstructuredGrid"  version="0.1"  >
<UnstructuredGrid>
<Piece  NumberOfPoints="81" NumberOfCells="128">
<Points>
<DataArray  type="Float64"  NumberOfComponents="3"  format="ascii">0 0 0  0.125 0 0  0.25 0 0  0.375 0 0  0.5 0 0  0.625 0 0  0.75 0 0  0.875 0 0  1 0 0  0 0.125 0  0.125 0.125 0  0.25 0.125 0  0.375 0.125 0  0.5 0.125 0  0.625 0.125 0  0.75 0.125 0  0.875 0.125 0  1 0.125 0  0 0.25 0  0.125 0.25 0  0.25 0.25 0  0.375 0.25 0  0.5 0.25 0  0.625 0.25 0  0.75 0.25 0  0.875 0.25 0  1 0.25 0  0 0.375 0  0.125 0.375 0  0.25 0.375 0  0.375 0.375 0  0.5 0.375 0  0.625 0.375 0  0.75 0.375 0  0.875 0.375 0  1 0.375 0  0 0.5 0  0.125 0.5 0  0.25 0.5 0  0.375 0.5 0  0.5 0.5 0  0.625 0.5 0  0.75 0.5 0  0.875 0.5 0  1 0.5 0  0 0.625 0  0.125 0.625 0  0.25 0.625 0  0.375 0.625 0  0.5 0.625 0  0.625 0.625 0  0.75 0.625 0  0.875 0.625 0  1 0.625 0  0 0.75 0  0.125 0.75 0  0.25 0.75 0  0.375 0.75 0  0.5 0.75 0  0.625 0.75 0  0.75 0.75 0  0.875 0.75 0  1 0.75 0  0 0.875 0  0.125 0.875 0  0.25 0.875 0  0.375 0.875 0  0.5 0.875 0  0.625 0.875 0  0.75 0.875 0  0.875 0.875 0  1 0.875 0  0 1 0  0.125 1 0  0.25 1 0  0.375 1 0  0.5 1 0  0.625 1 0  0.75 1 0  0.875 1 0  1 1 0  </DataArray>
</Points>
<Cells>
<DataArray  type="UInt32"  Name="connectivity"  format="ascii">0 1 10  0 9 10  1 2 11  1 10 11  2 3 12  2 11 12  3 4 13  3 12 13  4 5 14  4 13 14  5 6 15  5 14 15  6 7 16  6 15 16  7 8 17  7 16 17  9 10 19  9 18 19  10 11 20  10 19 20  11 12 21  11 20 21  12 13 22  12 21 22  13 14 23  13 22 23  14 15 24  14 23 24  15 16 25  15 24 25  16 17 26  16 25 26  18 19 28  18 27 28  19 20 29  19 28 29  20 21 30  20 29 30  21 22 31  21 30 31  22 23 32  22 31 32  23 24 33  23 32 33  24 25 34  24 33 34  25 26 35  25 34 35  27 28 37  27 36 37  28 29 38  28 37 38  29 30 39  29 38 39  30 31 40  30 39 40  31 32 41  31 40 41  32 33 42  32 41 42  33 34 43  33 42 43  34 35 44  34 43 44  36 37 46  36 45 46  37 38 47  37 46 47  38 39 48  38 47 48  39 40 49  39 48 49  40 41 50  40 49 50  41 42 51  41 50 51  42 43 52  42 51 52  43 44 53  43 52 53  45 46 55  45 54 55  46 47 56  46 55 56  47 48 57  47 56 57  48 49 58  48 57 58  49 50 59  49 58 59  50 51 60  50 59 60  51 52 61  51 60 61  52 53 62  52 61 62  54 55 64  54 63 64  55 56 65  55 64 65  56 57 66  56 65 66  57 58 67  57 66 67  58 59 68  58 67 68  59 60 69  59 68 69  60 61 70  60 69 70  61 62 71  61 70 71  63 64 73  63 72 73  64 65 74  64 73 74  65 66 75  65 74 75  66 67 76  66 75 76  67 68 77  67 76 77  68 69 78  68 77 78  69 70 79  69 78 79  70 71 80  70 79 80  </DataArray>
<DataArray  type="UInt32"  Name="offsets"  format="ascii">3 6 9 12 15 18 21 24 27 30 33 36 39 42 45 48 51 54 57 60 63 66 69 72 75 78 81 84 87 90 93 96 99 102 105 108 111 114 117 120 123 126 129 132 135 138 141 144 147 150 153 156 159 162 165 168 171 174 177 180 183 186 189 192 195 198 201 204 207 210 213 216 219 222 225 228 231 234 237 240 243 246 249 252 255 258 261 264 267 270 273 276 279 282 285 288 291 294 297 300 303 306 309 312 315 318 321 324 327 330 333 336 339 342 345 348 351 354 357 360 363 366 369 372 375 378 381 384 </DataArray>
<DataArray  type="UInt8"  Name="types"  format="ascii">5 5 5 5 5 5 5 5 5 5 5 5 5 5 5 5 5 5 5 5 5 5 5 5 5 5 5 5 5 5 5 5 5 5 5 5 5 5 5 5 5 5 5 5 5 5 5 5 5 5 5 5 5 5 5 5 5 5 5 5 5 5 5 5 5 5 5 5 5 5 5 5 5 5 5 5 5 5 5 5 5 5 5 5 5 5 5 5 5 5 5 5 5 5 5 5 5 5 5 5 5 5 5 5 5 5 5 5 5 5 5 5 5 5 5 5 5 5 5 5 5 5 5 5 5 5 5 5 </DataArray>
</Cells>
<CellData  Scalars="f_38997"> 
<DataArray  type="Float64"  Name="f_38997"  format="ascii">7.0927146329073502e-04   5.8164167149204451e-04   5.2481634938332977e-04   4.2630568982841529e-04   2.5780113603718964e-04   2.0816866593167672e-04   6.4629747290403949e-05   5.5822889288694491e-05   5.8587131818394755e-05   5.9409510272536125e-05   2.4332945423174068e-04   2.1773684327340147e-04   5.1060360929534464e-04   4.3904046236386537e-04   7.0348263391196476e-04   5.9473056294514169e-04   6.1698267505556914e-04   3.3023679184260659e-04   5.4006617884114747e-04   2.7613308520987092e-04   3.9145952168203398e-04   2.2872294981095997e-04   2.5935785354295674e-04   2.1661419548569215e-04   2.2231860810332268e-04   2.4812326062501023e-04   3.0307412315976057e-04   3.0614587844792580e-04   4.5512761693595138e-04   3.5816380084490075e-04   5.8971670936435903e-04   3.7519284796956658e-04   4.0486509312678322e-04   9.0890503092811773e-05   4.9453560441035460e-04   1.4231043150060427e-04   5.4084408572731171e-04   2.8511771597372447e-04   5.1823483935213880e-04   4.3598947019500713e-04   4.4146143649108078e-04   5.0736210857328429e-04   3.5683538088676094e-04   4.5843045682113340e-04   3.1510259949657862e-04   3.1896206038375442e-04   3.4150320263648902e-04   1.7171541371643488e-04   1.9206080709973809e-04   2.7530369301819738e-07   4.1270827590020743e-04   1.0125418342961178e-04   6.1979964270256823e-04   3.4503276119728457e-04   6.9307847558257665e-04   5.8843381797096209e-04   5.9057232539393156e-04   6.8880500049116995e-04   3.7318501168212396e-04   5.8741919038765057e-04   1.6910621516201730e-04   3.4375557372116471e-04   9.8686288633351632e-05   1.0054702657408248e-04   9.9845225320423076e-05   1.1031651313760332e-04   3.4052623103640925e-04   1.7634653472318529e-04   5.8185263988709535e-04   3.7352487101541840e-04   6.8238311697516247e-04   5.8549160196177713e-04   5.8307147415745191e-04   6.8716987005856486e-04   3.4196617790800649e-04   6.1809308602536717e-04   1.0031878308528092e-04   4.1774044261916126e-04   8.6095091437504641e-09   2.0239697009908055e-04   1.8106617550109997e-04   3.5775636829745957e-04   3.1940868211296179e-04   3.2443797821597883e-04   4.4879959077203833e-04   3.5423502798194938e-04   4.9229651389927625e-04   4.2886240152132087e-04   4.2325104154682450e-04   5.0338910168144465e-04   2.8107035210456709e-04   5.3280597495795976e-04   1.4820675698887874e-04   4.9839482336787072e-04   1.0213189318720336e-04   4.1879031924450160e-04   3.8916480938511221e-04   6.0117018495284237e-04   3.6196558919627468e-04   4.6109611909337983e-04   2.9792639971048520e-04   2.9895548085605192e-04   2.3302082588537080e-04   2.0940006787677256e-04   2.0376947453294768e-04   2.4406581422310966e-04   2.2595870830426144e-04   3.8162532427863218e-04   2.8539210393123334e-04   5.4037745808414471e-04   3.4642870724821168e-04   6.2627366297744085e-04   6.0518810479337818e-04   7.0348263391196606e-04   4.4383196285985521e-04   5.0960767555510071e-04   2.1544349503909983e-04   2.3987124832488082e-04   5.2762359327957086e-05   5.2599372800190263e-05   5.0108854244209300e-05   5.7519817470250118e-05   2.0815417639551598e-04   2.5164549922624188e-04   4.3346056535051704e-04   5.2114991699403793e-04   5.9327318297317422e-04   7.0817439450995097e-04   </DataArray> 
</CellData> 
</Piece>
</UnstructuredGrid>
</VTKFile>