<?xml version="1.0"?>
<VTKFile type="UnstructuredGrid"  version="0.1"  >
<UnstructuredGrid>
<Piece  NumberOfPoints="81" NumberOfCells="128">
<Points>
<DataArray  type="Float64"  NumberOfComponents="3"  format="ascii">0 0 0  0.125 0 0  0.25 0 0  0.375 0 0  0.5 0 0  0.625 0 0  0.75 0 0  0.875 0 0  1 0 0  0 0.125 0  0.125 0.125 0  0.25 0.125 0  0.375 0.125 0  0.5 0.125 0  0.625 0.125 0  0.75 0.125 0  0.875 0.125 0  1 0.125 0  0 0.25 0  0.125 0.25 0  0.25 0.25 0  0.375 0.25 0  0.5 0.25 0  0.625 0.25 0  0.75 0.25 0  0.875 0.25 0  1 0.25 0  0 0.375 0  0.125 0.375 0  0.25 0.375 0  0.375 0.375 0  0.5 0.375 0  0.625 0.375 0  0.75 0.375 0  0.875 0.375 0  1 0.375 0  0 0.5 0  0.125 0.5 0  0.25 0.5 0  0.375 0.5 0  0.5 0.5 0  0.625 0.5 0  0.75 0.5 0  0.875 0.5 0  1 0.5 0  0 0.625 0  0.125 0.625 0  0.25 0.625 0  0.375 0.625 0  0.5 0.625 0  0.625 0.625 0  0.75 0.625 0  0.875 0.625 0  1 0.625 0  0 0.75 0  0.125 0.75 0  0.25 0.75 0  0.375 0.75 0  0.5 0.75 0  0.625 0.75 0  0.75 0.75 0  0.875 0.75 0  1 0.75 0  0 0.875 0  0.125 0.875 0  0.25 0.875 0  0.375 0.875 0  0.5 0.875 0  0.625 0.875 0  0.75 0.875 0  0.875 0.875 0  1 0.875 0  0 1 0  0.125 1 0  0.25 1 0  0.375 1 0  0.5 1 0  0.625 1 0  0.75 1 0  0.875 1 0  1 1 0  </DataArray>
</Points>
<Cells>
<DataArray  type="UInt32"  Name="connectivity"  format="ascii">0 1 10  0 9 10  1 2 11  1 10 11  2 3 12  2 11 12  3 4 13  3 12 13  4 5 14  4 13 14  5 6 15  5 14 15  6 7 16  6 15 16  7 8 17  7 16 17  9 10 19  9 18 19  10 11 20  10 19 20  11 12 21  11 20 21  12 13 22  12 21 22  13 14 23  13 22 23  14 15 24  14 23 24  15 16 25  15 24 25  16 17 26  16 25 26  18 19 28  18 27 28  19 20 29  19 28 29  20 21 30  20 29 30  21 22 31  21 30 31  22 23 32  22 31 32  23 24 33  23 32 33  24 25 34  24 33 34  25 26 35  25 34 35  27 28 37  27 36 37  28 29 38  28 37 38  29 30 39  29 38 39  30 31 40  30 39 40  31 32 41  31 40 41  32 33 42  32 41 42  33 34 43  33 42 43  34 35 44  34 43 44  36 37 46  36 45 46  37 38 47  37 46 47  38 39 48  38 47 48  39 40 49  39 48 49  40 41 50  40 49 50  41 42 51  41 50 51  42 43 52  42 51 52  43 44 53  43 52 53  45 46 55  45 54 55  46 47 56  46 55 56  47 48 57  47 56 57  48 49 58  48 57 58  49 50 59  49 58 59  50 51 60  50 59 60  51 52 61  51 60 61  52 53 62  52 61 62  54 55 64  54 63 64  55 56 65  55 64 65  56 57 66  56 65 66  57 58 67  57 66 67  58 59 68  58 67 68  59 60 69  59 68 69  60 61 70  60 69 70  61 62 71  61 70 71  63 64 73  63 72 73  64 65 74  64 73 74  65 66 75  65 74 75  66 67 76  66 75 76  67 68 77  67 76 77  68 69 78  68 77 78  69 70 79  69 78 79  70 71 80  70 79 80  </DataArray>
<DataArray  type="UInt32"  Name="offsets"  format="ascii">3 6 9 12 15 18 21 24 27 30 33 36 39 42 45 48 51 54 57 60 63 66 69 72 75 78 81 84 87 90 93 96 99 102 105 108 111 114 117 120 123 126 129 132 135 138 141 144 147 150 153 156 159 162 165 168 171 174 177 180 183 186 189 192 195 198 201 204 207 210 213 216 219 222 225 228 231 234 237 240 243 246 249 252 255 258 261 264 267 270 273 276 279 282 285 288 291 294 297 300 303 306 309 312 315 318 321 324 327 330 333 336 339 342 345 348 351 354 357 360 363 366 369 372 375 378 381 384 </DataArray>
<DataArray  type="UInt8"  Name="types"  format="ascii">5 5 5 5 5 5 5 5 5 5 5 5 5 5 5 5 5 5 5 5 5 5 5 5 5 5 5 5 5 5 5 5 5 5 5 5 5 5 5 5 5 5 5 5 5 5 5 5 5 5 5 5 5 5 5 5 5 5 5 5 5 5 5 5 5 5 5 5 5 5 5 5 5 5 5 5 5 5 5 5 5 5 5 5 5 5 5 5 5 5 5 5 5 5 5 5 5 5 5 5 5 5 5 5 5 5 5 5 5 5 5 5 5 5 5 5 5 5 5 5 5 5 5 5 5 5 5 5 </DataArray>
</Cells>
<CellData  Scalars="f_47786"> 
<DataArray  type="Float64"  Name="f_47786"  format="ascii">1.0823920366054866e-05   1.0453141629367476e-05   6.2895373597795720e-06   7.2642096765576270e-06   2.0426490593171866e-06   3.2872039244235303e-06   5.6929839581488519e-07   1.3155482017219190e-06   2.7343565885461483e-06   2.5087483706605634e-06   7.2735561236534820e-06   6.1695482579282575e-06   1.1536106264693533e-05   1.0152578167986251e-05   1.2979463144061414e-05   1.2143368008027377e-05   6.7662980890148613e-06   5.2368775771143648e-06   3.9593898597295117e-06   3.6019100004760084e-06   2.4481817452815138e-06   2.8657330313395975e-06   3.1417843443734451e-06   3.8021575380220713e-06   5.6354343475578098e-06   5.8545382288691191e-06   8.4676367333973772e-06   7.8199681991858018e-06   9.9576284214382843e-06   8.5461884141072252e-06   9.1294829190344666e-06   7.6213284605694760e-06   2.3147056705448498e-06   1.0892086306885913e-06   2.4920217319588656e-06   1.6830873143880435e-06   4.2675963895362116e-06   4.0282009322166213e-06   6.6283322517678929e-06   6.9229443198213642e-06   8.1903861736368910e-06   8.6686678738670529e-06   8.0367981612275498e-06   8.2424225862498337e-06   6.2448492153357497e-06   5.8942983535643110e-06   3.7741422801988021e-06   2.9952275524541424e-06   6.4670630547495603e-07   4.3539178652796570e-07   3.1578729550006964e-06   2.6536829547003068e-06   6.6371004099749210e-06   6.1184301167937437e-06   9.0638715728233325e-06   8.8722229168872019e-06   9.0160665581067058e-06   9.3102810790884515e-06   6.5216217178712253e-06   7.1762175695452060e-06   3.0412570722411640e-06   3.7204353483923481e-06   5.2973186405729358e-07   9.4197258281873962e-07   2.7379232895219868e-06   3.6604493521788091e-06   5.5558715327323253e-06   5.9452479738823387e-06   8.1607430716867215e-06   7.9103371821199939e-06   9.0247780684949146e-06   8.5069271798833303e-06   7.6416113672337752e-06   7.4029425154110474e-06   4.8220305649811014e-06   5.2448120910642848e-06   2.2269042275370430e-06   3.2955787801085392e-06   1.3142573034210623e-06   2.6622411216715435e-06   7.3625056910435322e-06   8.8777628953100214e-06   8.2797027708061892e-06   9.6269842492576262e-06   7.9451754132436391e-06   8.3509033396115683e-06   6.5339199683993640e-06   6.0402815041025946e-06   4.8718052217960533e-06   4.0639345210901984e-06   3.9323427387352139e-06   3.5785747077050446e-06   4.2790306023218258e-06   4.8665612830930283e-06   5.6703926231344021e-06   7.1458242924268791e-06   1.1807673231926054e-05   1.3038270172297547e-05   9.7313922971868013e-06   1.1514928405340949e-05   6.1167295276685177e-06   7.1657708351962739e-06   3.0505540914289651e-06   2.9122695539241867e-06   2.3275129900891058e-06   1.2532351879929606e-06   4.3709229200648252e-06   3.1621943930413499e-06   7.9945201760870019e-06   7.5221744054864840e-06   1.1047184638761174e-05   1.1774804414053576e-05   1.3478568268059515e-05   1.3648302242496705e-05   9.0770430441815221e-06   1.0520926454044934e-05   3.7513844174351178e-06   5.0286783470970362e-06   5.9868197353264028e-07   8.9148714102082727e-07   1.4657665664896414e-06   5.5436792808184007e-07   5.8466262557845627e-06   4.2188239277961341e-06   1.1188934107944116e-05   9.7391521312348280e-06   1.4279772885188312e-05   1.3871955301739100e-05   </DataArray> 
</CellData> 
</Piece>
</UnstructuredGrid>
</VTKFile>