<?xml version="1.0"?>
<VTKFile type="UnstructuredGrid"  version="0.1"  >
<UnstructuredGrid>
<Piece  NumberOfPoints="81" NumberOfCells="128">
<Points>
<DataArray  type="Float64"  NumberOfComponents="3"  format="ascii">0 0 0  0.125 0 0  0.25 0 0  0.375 0 0  0.5 0 0  0.625 0 0  0.75 0 0  0.875 0 0  1 0 0  0 0.125 0  0.125 0.125 0  0.25 0.125 0  0.375 0.125 0  0.5 0.125 0  0.625 0.125 0  0.75 0.125 0  0.875 0.125 0  1 0.125 0  0 0.25 0  0.125 0.25 0  0.25 0.25 0  0.375 0.25 0  0.5 0.25 0  0.625 0.25 0  0.75 0.25 0  0.875 0.25 0  1 0.25 0  0 0.375 0  0.125 0.375 0  0.25 0.375 0  0.375 0.375 0  0.5 0.375 0  0.625 0.375 0  0.75 0.375 0  0.875 0.375 0  1 0.375 0  0 0.5 0  0.125 0.5 0  0.25 0.5 0  0.375 0.5 0  0.5 0.5 0  0.625 0.5 0  0.75 0.5 0  0.875 0.5 0  1 0.5 0  0 0.625 0  0.125 0.625 0  0.25 0.625 0  0.375 0.625 0  0.5 0.625 0  0.625 0.625 0  0.75 0.625 0  0.875 0.625 0  1 0.625 0  0 0.75 0  0.125 0.75 0  0.25 0.75 0  0.375 0.75 0  0.5 0.75 0  0.625 0.75 0  0.75 0.75 0  0.875 0.75 0  1 0.75 0  0 0.875 0  0.125 0.875 0  0.25 0.875 0  0.375 0.875 0  0.5 0.875 0  0.625 0.875 0  0.75 0.875 0  0.875 0.875 0  1 0.875 0  0 1 0  0.125 1 0  0.25 1 0  0.375 1 0  0.5 1 0  0.625 1 0  0.75 1 0  0.875 1 0  1 1 0  </DataArray>
</Points>
<Cells>
<DataArray  type="UInt32"  Name="connectivity"  format="ascii">0 1 10  0 9 10  1 2 11  1 10 11  2 3 12  2 11 12  3 4 13  3 12 13  4 5 14  4 13 14  5 6 15  5 14 15  6 7 16  6 15 16  7 8 17  7 16 17  9 10 19  9 18 19  10 11 20  10 19 20  11 12 21  11 20 21  12 13 22  12 21 22  13 14 23  13 22 23  14 15 24  14 23 24  15 16 25  15 24 25  16 17 26  16 25 26  18 19 28  18 27 28  19 20 29  19 28 29  20 21 30  20 29 30  21 22 31  21 30 31  22 23 32  22 31 32  23 24 33  23 32 33  24 25 34  24 33 34  25 26 35  25 34 35  27 28 37  27 36 37  28 29 38  28 37 38  29 30 39  29 38 39  30 31 40  30 39 40  31 32 41  31 40 41  32 33 42  32 41 42  33 34 43  33 42 43  34 35 44  34 43 44  36 37 46  36 45 46  37 38 47  37 46 47  38 39 48  38 47 48  39 40 49  39 48 49  40 41 50  40 49 50  41 42 51  41 50 51  42 43 52  42 51 52  43 44 53  43 52 53  45 46 55  45 54 55  46 47 56  46 55 56  47 48 57  47 56 57  48 49 58  48 57 58  49 50 59  49 58 59  50 51 60  50 59 60  51 52 61  51 60 61  52 53 62  52 61 62  54 55 64  54 63 64  55 56 65  55 64 65  56 57 66  56 65 66  57 58 67  57 66 67  58 59 68  58 67 68  59 60 69  59 68 69  60 61 70  60 69 70  61 62 71  61 70 71  63 64 73  63 72 73  64 65 74  64 73 74  65 66 75  65 74 75  66 67 76  66 75 76  67 68 77  67 76 77  68 69 78  68 77 78  69 70 79  69 78 79  70 71 80  70 79 80  </DataArray>
<DataArray  type="UInt32"  Name="offsets"  format="ascii">3 6 9 12 15 18 21 24 27 30 33 36 39 42 45 48 51 54 57 60 63 66 69 72 75 78 81 84 87 90 93 96 99 102 105 108 111 114 117 120 123 126 129 132 135 138 141 144 147 150 153 156 159 162 165 168 171 174 177 180 183 186 189 192 195 198 201 204 207 210 213 216 219 222 225 228 231 234 237 240 243 246 249 252 255 258 261 264 267 270 273 276 279 282 285 288 291 294 297 300 303 306 309 312 315 318 321 324 327 330 333 336 339 342 345 348 351 354 357 360 363 366 369 372 375 378 381 384 </DataArray>
<DataArray  type="UInt8"  Name="types"  format="ascii">5 5 5 5 5 5 5 5 5 5 5 5 5 5 5 5 5 5 5 5 5 5 5 5 5 5 5 5 5 5 5 5 5 5 5 5 5 5 5 5 5 5 5 5 5 5 5 5 5 5 5 5 5 5 5 5 5 5 5 5 5 5 5 5 5 5 5 5 5 5 5 5 5 5 5 5 5 5 5 5 5 5 5 5 5 5 5 5 5 5 5 5 5 5 5 5 5 5 5 5 5 5 5 5 5 5 5 5 5 5 5 5 5 5 5 5 5 5 5 5 5 5 5 5 5 5 5 5 </DataArray>
</Cells>
<CellData  Scalars="f_38988"> 
<DataArray  type="Float64"  Name="f_38988"  format="ascii">4.7845954053064484e-09   1.0041395682941030e-08   2.5922679217024091e-10   1.3730404220751015e-09   6.5360059350773925e-10   4.5331387046934319e-10   1.3466721186007609e-09   1.2968088503154338e-09   1.4217130435713944e-09   2.1439903658133229e-09   1.0478274446588593e-09   2.1733910395579118e-09   5.4437785645627969e-10   1.5718166261340928e-09   6.4549838612916707e-08   6.4184105928212206e-09   2.2716617995515938e-09   1.3642172117666657e-09   3.3479802872191541e-10   3.3922899919543856e-10   3.2134289741119382e-10   3.3381416699623430e-10   9.7296952030121258e-10   1.2263108790054788e-09   1.1421995269507203e-09   1.6373768299593281e-09   5.6831074937805221e-10   1.0631428679647319e-09   1.1018587376613312e-09   6.2333992709589733e-10   5.2452690224689366e-09   4.2588811317966213e-09   1.2619583936338310e-09   2.1902534027953289e-09   5.0085290103235850e-10   6.9217875445330198e-10   9.3229330568256238e-10   9.0372954045448752e-10   1.0437721063823271e-09   1.0766315471446562e-09   5.5887761956107272e-10   6.8098524990897609e-10   1.2896577092681919e-10   1.3926054607772772e-10   4.9688494095993083e-10   2.3833568165865007e-10   1.7848491744992394e-09   1.2214961762226685e-09   3.2024745166217707e-09   2.5607179484084201e-09   1.7362312840251467e-09   1.2147730315922854e-09   1.2604856501760515e-09   9.7059166455702196e-10   5.8398450904559551e-10   4.8430999313069510e-10   8.5003563331919920e-11   7.0499257683026729e-11   1.9075857304914641e-10   2.2854272903004099e-10   3.4894974208336020e-10   8.4057650961229442e-10   6.0188459420184194e-10   1.2266042915485201e-09   3.2374247287877622e-09   1.3842177793976926e-09   1.8720338150615802e-09   9.2653871428815603e-10   7.4696141778018740e-10   4.3913745210492972e-10   8.8015233012478205e-11   6.1076965126872300e-11   1.8736937916124033e-10   2.4994973743145896e-10   6.1896382739699393e-10   8.9907054080505374e-10   6.6092976526534155e-10   1.4811959895929770e-09   1.1978377340072939e-09   2.1337534632253949e-09   1.6712641273104558e-09   2.7562299817113298e-10   8.4395815368927752e-10   3.0671192429058340e-10   1.1376678525748415e-10   1.1806814315515396e-10   1.9655216835563991e-10   2.7684296320875902e-10   7.5317206004119367e-10   6.9192505684862387e-10   9.4795517141651360e-10   9.8617420038206564e-10   7.3512842458944166e-10   9.8108183549749133e-10   1.6034987163948665e-09   1.5672960253635983e-09   8.3777413513989300e-10   8.7166347436350534e-10   3.9137510206411697e-10   1.1353126770178384e-09   3.1882001568665468e-10   7.5485959521311189e-10   7.4356381938535096e-10   5.3022297945486471e-10   1.0604964673895270e-09   4.9002578524116249e-10   7.3448968216784262e-10   3.4744049600648496e-10   2.5548175249584521e-10   1.0265459875665113e-10   7.5529547801675248e-10   4.7889404617775756e-10   4.1641767937871897e-09   2.6347064978430867e-08   3.1733201229803409e-09   4.3158319195979698e-09   1.4258334661601287e-09   1.1870671339019261e-09   7.7114433215236711e-10   1.6881060851918022e-10   7.0355839154233405e-10   2.4552202793000093e-10   6.6488070138018704e-10   5.1745685709254221e-10   6.8620721929431306e-10   6.1613746981263925e-10   2.2347064921004645e-10   1.5702916093276154e-09   </DataArray> 
</CellData> 
</Piece>
</UnstructuredGrid>
</VTKFile>