<?xml version="1.0"?>
<VTKFile type="UnstructuredGrid"  version="0.1"  >
<UnstructuredGrid>
<Piece  NumberOfPoints="25" NumberOfCells="32">
<Points>
<DataArray  type="Float64"  NumberOfComponents="3"  format="ascii">0 0 0  0.25 0 0  0.5 0 0  0.75 0 0  1 0 0  0 0.25 0  0.25 0.25 0  0.5 0.25 0  0.75 0.25 0  1 0.25 0  0 0.5 0  0.25 0.5 0  0.5 0.5 0  0.75 0.5 0  1 0.5 0  0 0.75 0  0.25 0.75 0  0.5 0.75 0  0.75 0.75 0  1 0.75 0  0 1 0  0.25 1 0  0.5 1 0  0.75 1 0  1 1 0  </DataArray>
</Points>
<Cells>
<DataArray  type="UInt32"  Name="connectivity"  format="ascii">0 1 6  0 5 6  1 2 7  1 6 7  2 3 8  2 7 8  3 4 9  3 8 9  5 6 11  5 10 11  6 7 12  6 11 12  7 8 13  7 12 13  8 9 14  8 13 14  10 11 16  10 15 16  11 12 17  11 16 17  12 13 18  12 17 18  13 14 19  13 18 19  15 16 21  15 20 21  16 17 22  16 21 22  17 18 23  17 22 23  18 19 24  18 23 24  </DataArray>
<DataArray  type="UInt32"  Name="offsets"  format="ascii">3 6 9 12 15 18 21 24 27 30 33 36 39 42 45 48 51 54 57 60 63 66 69 72 75 78 81 84 87 90 93 96 </DataArray>
<DataArray  type="UInt8"  Name="types"  format="ascii">5 5 5 5 5 5 5 5 5 5 5 5 5 5 5 5 5 5 5 5 5 5 5 5 5 5 5 5 5 5 5 5 </DataArray>
</Cells>
<CellData  Scalars="f_34481"> 
<DataArray  type="Float64"  Name="f_34481"  format="ascii">2.3091097562392794e-33   2.3091097562392794e-33   1.6290157446275361e-33   1.6290157446275361e-33   5.3498054010756607e-35   5.3498054010756607e-35   1.3909494042796701e-34   1.3909494042796701e-34   1.4230482366861231e-33   1.4230482366861231e-33   1.7281184712203330e-33   1.7275273956457817e-33   1.2692413314051997e-33   1.2698324069797511e-33   0.0000000000000000e+00   0.0000000000000000e+00   1.6905385067399062e-33   1.6905385067399062e-33   5.0369820226988423e-34   5.0355043337624641e-34   1.4157053153079886e-33   1.4158530842016264e-33   3.0293273083590912e-34   3.0293273083590912e-34   1.0699610802151321e-34   1.0699610802151321e-34   4.0679208693284306e-34   4.0658521048175006e-34   6.0987781572262474e-34   6.1008469217371774e-34   1.9560225997682854e-33   1.9560225997682854e-33   </DataArray> 
</CellData> 
</Piece>
</UnstructuredGrid>
</VTKFile>