<?xml version="1.0"?>
<VTKFile type="UnstructuredGrid"  version="0.1"  >
<UnstructuredGrid>
<Piece  NumberOfPoints="25" NumberOfCells="32">
<Points>
<DataArray  type="Float64"  NumberOfComponents="3"  format="ascii">0 0 0  0.25 0 0  0.5 0 0  0.75 0 0  1 0 0  0 0.25 0  0.25 0.25 0  0.5 0.25 0  0.75 0.25 0  1 0.25 0  0 0.5 0  0.25 0.5 0  0.5 0.5 0  0.75 0.5 0  1 0.5 0  0 0.75 0  0.25 0.75 0  0.5 0.75 0  0.75 0.75 0  1 0.75 0  0 1 0  0.25 1 0  0.5 1 0  0.75 1 0  1 1 0  </DataArray>
</Points>
<Cells>
<DataArray  type="UInt32"  Name="connectivity"  format="ascii">0 1 6  0 5 6  1 2 7  1 6 7  2 3 8  2 7 8  3 4 9  3 8 9  5 6 11  5 10 11  6 7 12  6 11 12  7 8 13  7 12 13  8 9 14  8 13 14  10 11 16  10 15 16  11 12 17  11 16 17  12 13 18  12 17 18  13 14 19  13 18 19  15 16 21  15 20 21  16 17 22  16 21 22  17 18 23  17 22 23  18 19 24  18 23 24  </DataArray>
<DataArray  type="UInt32"  Name="offsets"  format="ascii">3 6 9 12 15 18 21 24 27 30 33 36 39 42 45 48 51 54 57 60 63 66 69 72 75 78 81 84 87 90 93 96 </DataArray>
<DataArray  type="UInt8"  Name="types"  format="ascii">5 5 5 5 5 5 5 5 5 5 5 5 5 5 5 5 5 5 5 5 5 5 5 5 5 5 5 5 5 5 5 5 </DataArray>
</Cells>
<CellData  Scalars="f_47655"> 
<DataArray  type="Float64"  Name="f_47655"  format="ascii">1.8897704320511098e-38   1.8897704320511098e-38   2.3869576043064566e-38   2.3869576043064566e-38   2.3016271224596564e-39   2.3016271224596564e-39   4.0815776070218359e-40   4.0815776070218359e-40   0.0000000000000000e+00   0.0000000000000000e+00   1.8050776967054049e-38   1.8050776967054049e-38   1.5509994906682973e-38   1.5509994906682973e-38   2.3872645198101077e-39   2.3872645198101077e-39   2.4878491007800259e-39   2.4878491007800259e-39   1.7706393856461600e-38   1.7706393856461600e-38   5.8060441459885508e-39   5.8060441459885508e-39   6.6937872755158062e-39   6.6937872755158062e-39   9.3621186361063363e-40   9.3621186361063363e-40   1.0746028543487170e-39   1.0746028543487170e-39   2.9050628617977901e-38   2.9050628617977901e-38   2.8245792533593286e-38   2.8245792533593286e-38   </DataArray> 
</CellData> 
</Piece>
</UnstructuredGrid>
</VTKFile>