<?xml version="1.0"?>
<VTKFile type="UnstructuredGrid"  version="0.1"  >
<UnstructuredGrid>
<Piece  NumberOfPoints="25" NumberOfCells="32">
<Points>
<DataArray  type="Float64"  NumberOfComponents="3"  format="ascii">0 0 0  0.25 0 0  0.5 0 0  0.75 0 0  1 0 0  0 0.25 0  0.25 0.25 0  0.5 0.25 0  0.75 0.25 0  1 0.25 0  0 0.5 0  0.25 0.5 0  0.5 0.5 0  0.75 0.5 0  1 0.5 0  0 0.75 0  0.25 0.75 0  0.5 0.75 0  0.75 0.75 0  1 0.75 0  0 1 0  0.25 1 0  0.5 1 0  0.75 1 0  1 1 0  </DataArray>
</Points>
<Cells>
<DataArray  type="UInt32"  Name="connectivity"  format="ascii">0 1 6  0 5 6  1 2 7  1 6 7  2 3 8  2 7 8  3 4 9  3 8 9  5 6 11  5 10 11  6 7 12  6 11 12  7 8 13  7 12 13  8 9 14  8 13 14  10 11 16  10 15 16  11 12 17  11 16 17  12 13 18  12 17 18  13 14 19  13 18 19  15 16 21  15 20 21  16 17 22  16 21 22  17 18 23  17 22 23  18 19 24  18 23 24  </DataArray>
<DataArray  type="UInt32"  Name="offsets"  format="ascii">3 6 9 12 15 18 21 24 27 30 33 36 39 42 45 48 51 54 57 60 63 66 69 72 75 78 81 84 87 90 93 96 </DataArray>
<DataArray  type="UInt8"  Name="types"  format="ascii">5 5 5 5 5 5 5 5 5 5 5 5 5 5 5 5 5 5 5 5 5 5 5 5 5 5 5 5 5 5 5 5 </DataArray>
</Cells>
<CellData  Scalars="f_87357"> 
<DataArray  type="Float64"  Name="f_87357"  format="ascii">5.3637510483232531e-08   3.7720780006621134e-07   8.3816843379290569e-08   1.3654650935472141e-07   5.1290248944143611e-08   1.7311640302323756e-07   4.3913185037834964e-07   4.0368992177468841e-07   2.5125011468755974e-07   1.6125280241118446e-07   9.0466592537941997e-08   8.4572776959052850e-08   6.6458492340155312e-08   1.1979405155570559e-08   1.8941440449789236e-07   2.6059568566693348e-07   2.4898866280272992e-07   2.0790485185197790e-07   1.1603442994233537e-08   6.6187140174571651e-08   8.5972045825724273e-08   9.1825689565322443e-08   1.6904160322797106e-07   2.5332754586111857e-07   4.1429945015065303e-07   4.8511618329071226e-07   1.8236590321971553e-07   5.1824008750273234e-08   1.3737146692427384e-07   9.1998117429738396e-08   4.0492053710313467e-07   6.4868509723944888e-08   </DataArray> 
</CellData> 
</Piece>
</UnstructuredGrid>
</VTKFile>