<?xml version="1.0"?>
<VTKFile type="UnstructuredGrid"  version="0.1"  >
<UnstructuredGrid>
<Piece  NumberOfPoints="25" NumberOfCells="32">
<Points>
<DataArray  type="Float64"  NumberOfComponents="3"  format="ascii">0 0 0  0.25 0 0  0.5 0 0  0.75 0 0  1 0 0  0 0.25 0  0.25 0.25 0  0.5 0.25 0  0.75 0.25 0  1 0.25 0  0 0.5 0  0.25 0.5 0  0.5 0.5 0  0.75 0.5 0  1 0.5 0  0 0.75 0  0.25 0.75 0  0.5 0.75 0  0.75 0.75 0  1 0.75 0  0 1 0  0.25 1 0  0.5 1 0  0.75 1 0  1 1 0  </DataArray>
</Points>
<Cells>
<DataArray  type="UInt32"  Name="connectivity"  format="ascii">0 1 6  0 5 6  1 2 7  1 6 7  2 3 8  2 7 8  3 4 9  3 8 9  5 6 11  5 10 11  6 7 12  6 11 12  7 8 13  7 12 13  8 9 14  8 13 14  10 11 16  10 15 16  11 12 17  11 16 17  12 13 18  12 17 18  13 14 19  13 18 19  15 16 21  15 20 21  16 17 22  16 21 22  17 18 23  17 22 23  18 19 24  18 23 24  </DataArray>
<DataArray  type="UInt32"  Name="offsets"  format="ascii">3 6 9 12 15 18 21 24 27 30 33 36 39 42 45 48 51 54 57 60 63 66 69 72 75 78 81 84 87 90 93 96 </DataArray>
<DataArray  type="UInt8"  Name="types"  format="ascii">5 5 5 5 5 5 5 5 5 5 5 5 5 5 5 5 5 5 5 5 5 5 5 5 5 5 5 5 5 5 5 5 </DataArray>
</Cells>
<CellData  Scalars="f_36126"> 
<DataArray  type="Float64"  Name="f_36126"  format="ascii">2.1778789948768756e-03   2.3654908376625583e-03   2.0118762597621772e-03   4.1617752972066746e-03   4.3288642362059677e-04   2.5449864917933200e-03   6.5231835827122707e-04   1.2427573813261555e-03   9.2545015522211213e-03   7.2229210832544539e-03   3.7510537062296974e-03   3.5364881837939262e-03   1.8941238980128218e-03   1.5976618246334499e-03   5.8190137491152330e-03   7.9871827012586057e-03   8.0055855704976430e-03   5.8325567191411590e-03   1.6043525543289498e-03   1.8978394282023166e-03   3.5003006536061211e-03   3.7138901336301274e-03   7.2523088986937451e-03   9.2712018532283176e-03   1.2782601024787371e-03   6.9072299445223514e-04   2.5242580416308157e-03   4.1638723514180435e-04   4.1518096546593426e-03   2.0160983067755715e-03   2.4001268130595561e-03   2.2121734821705262e-03   </DataArray> 
</CellData> 
</Piece>
</UnstructuredGrid>
</VTKFile>