<?xml version="1.0"?>
<VTKFile type="UnstructuredGrid"  version="0.1"  >
<UnstructuredGrid>
<Piece  NumberOfPoints="81" NumberOfCells="128">
<Points>
<DataArray  type="Float64"  NumberOfComponents="3"  format="ascii">0 0 0  0.125 0 0  0.25 0 0  0.375 0 0  0.5 0 0  0.625 0 0  0.75 0 0  0.875 0 0  1 0 0  0 0.125 0  0.125 0.125 0  0.25 0.125 0  0.375 0.125 0  0.5 0.125 0  0.625 0.125 0  0.75 0.125 0  0.875 0.125 0  1 0.125 0  0 0.25 0  0.125 0.25 0  0.25 0.25 0  0.375 0.25 0  0.5 0.25 0  0.625 0.25 0  0.75 0.25 0  0.875 0.25 0  1 0.25 0  0 0.375 0  0.125 0.375 0  0.25 0.375 0  0.375 0.375 0  0.5 0.375 0  0.625 0.375 0  0.75 0.375 0  0.875 0.375 0  1 0.375 0  0 0.5 0  0.125 0.5 0  0.25 0.5 0  0.375 0.5 0  0.5 0.5 0  0.625 0.5 0  0.75 0.5 0  0.875 0.5 0  1 0.5 0  0 0.625 0  0.125 0.625 0  0.25 0.625 0  0.375 0.625 0  0.5 0.625 0  0.625 0.625 0  0.75 0.625 0  0.875 0.625 0  1 0.625 0  0 0.75 0  0.125 0.75 0  0.25 0.75 0  0.375 0.75 0  0.5 0.75 0  0.625 0.75 0  0.75 0.75 0  0.875 0.75 0  1 0.75 0  0 0.875 0  0.125 0.875 0  0.25 0.875 0  0.375 0.875 0  0.5 0.875 0  0.625 0.875 0  0.75 0.875 0  0.875 0.875 0  1 0.875 0  0 1 0  0.125 1 0  0.25 1 0  0.375 1 0  0.5 1 0  0.625 1 0  0.75 1 0  0.875 1 0  1 1 0  </DataArray>
</Points>
<Cells>
<DataArray  type="UInt32"  Name="connectivity"  format="ascii">0 1 10  0 9 10  1 2 11  1 10 11  2 3 12  2 11 12  3 4 13  3 12 13  4 5 14  4 13 14  5 6 15  5 14 15  6 7 16  6 15 16  7 8 17  7 16 17  9 10 19  9 18 19  10 11 20  10 19 20  11 12 21  11 20 21  12 13 22  12 21 22  13 14 23  13 22 23  14 15 24  14 23 24  15 16 25  15 24 25  16 17 26  16 25 26  18 19 28  18 27 28  19 20 29  19 28 29  20 21 30  20 29 30  21 22 31  21 30 31  22 23 32  22 31 32  23 24 33  23 32 33  24 25 34  24 33 34  25 26 35  25 34 35  27 28 37  27 36 37  28 29 38  28 37 38  29 30 39  29 38 39  30 31 40  30 39 40  31 32 41  31 40 41  32 33 42  32 41 42  33 34 43  33 42 43  34 35 44  34 43 44  36 37 46  36 45 46  37 38 47  37 46 47  38 39 48  38 47 48  39 40 49  39 48 49  40 41 50  40 49 50  41 42 51  41 50 51  42 43 52  42 51 52  43 44 53  43 52 53  45 46 55  45 54 55  46 47 56  46 55 56  47 48 57  47 56 57  48 49 58  48 57 58  49 50 59  49 58 59  50 51 60  50 59 60  51 52 61  51 60 61  52 53 62  52 61 62  54 55 64  54 63 64  55 56 65  55 64 65  56 57 66  56 65 66  57 58 67  57 66 67  58 59 68  58 67 68  59 60 69  59 68 69  60 61 70  60 69 70  61 62 71  61 70 71  63 64 73  63 72 73  64 65 74  64 73 74  65 66 75  65 74 75  66 67 76  66 75 76  67 68 77  67 76 77  68 69 78  68 77 78  69 70 79  69 78 79  70 71 80  70 79 80  </DataArray>
<DataArray  type="UInt32"  Name="offsets"  format="ascii">3 6 9 12 15 18 21 24 27 30 33 36 39 42 45 48 51 54 57 60 63 66 69 72 75 78 81 84 87 90 93 96 99 102 105 108 111 114 117 120 123 126 129 132 135 138 141 144 147 150 153 156 159 162 165 168 171 174 177 180 183 186 189 192 195 198 201 204 207 210 213 216 219 222 225 228 231 234 237 240 243 246 249 252 255 258 261 264 267 270 273 276 279 282 285 288 291 294 297 300 303 306 309 312 315 318 321 324 327 330 333 336 339 342 345 348 351 354 357 360 363 366 369 372 375 378 381 384 </DataArray>
<DataArray  type="UInt8"  Name="types"  format="ascii">5 5 5 5 5 5 5 5 5 5 5 5 5 5 5 5 5 5 5 5 5 5 5 5 5 5 5 5 5 5 5 5 5 5 5 5 5 5 5 5 5 5 5 5 5 5 5 5 5 5 5 5 5 5 5 5 5 5 5 5 5 5 5 5 5 5 5 5 5 5 5 5 5 5 5 5 5 5 5 5 5 5 5 5 5 5 5 5 5 5 5 5 5 5 5 5 5 5 5 5 5 5 5 5 5 5 5 5 5 5 5 5 5 5 5 5 5 5 5 5 5 5 5 5 5 5 5 5 </DataArray>
</Cells>
<CellData  Scalars="f_87456"> 
<DataArray  type="Float64"  Name="f_87456"  format="ascii">5.0096428713186068e-07   7.7587988360539756e-07   1.5187493577266920e-06   1.1592516198786773e-06   2.6466348143071067e-06   1.9881475903722601e-06   3.2233747462545194e-06   2.7807727330551069e-06   2.9110876105967975e-06   3.0729468404069552e-06   1.8924436471790381e-06   2.6934682926715492e-06   7.6484872967318146e-07   1.8649604462834873e-06   1.8348611590534341e-07   1.0738513712864965e-06   1.3407682790930508e-06   2.0671699028258958e-06   1.6643453256255898e-06   1.8792612483751579e-06   1.9864648087419816e-06   1.7215305923277964e-06   2.1127233120492067e-06   1.6832576738965517e-06   1.9692631275894186e-06   1.7862889048026774e-06   1.6401638132588875e-06   1.9702779400697845e-06   1.3199245148994844e-06   2.1273180915026582e-06   1.1916676529310831e-06   2.1713349215863215e-06   2.5081465793767453e-06   3.1680172752973942e-06   1.9710029974060109e-06   2.4784189407665148e-06   1.2779034066994078e-06   1.4313517079455950e-06   8.2551526477044314e-07   6.3107594787744511e-07   8.7933117798222492e-07   5.4579761502863539e-07   1.4079363356040534e-06   1.2254758614056569e-06   2.1031318446177447e-06   2.2718287024588904e-06   2.5594285325031682e-06   3.0811758080867901e-06   3.3197075235341678e-06   3.4324935187866452e-06   2.2556353921356427e-06   2.5984153124144164e-06   9.2717627002862240e-07   1.2772562877031178e-06   1.0243646390600403e-07   2.3046494430820422e-07   2.6477871826999639e-07   7.0245158653657955e-08   1.3192213761800123e-06   8.9041043466839754e-07   2.6492649305887796e-06   2.2105642044102602e-06   3.4841323125857281e-06   3.2664715872875507e-06   3.3005319522926514e-06   2.7056739247716848e-06   2.3514812993806383e-06   2.1694368192417544e-06   1.1395774076868181e-06   1.3503525974557077e-06   3.6634392831644181e-07   7.1653988658489445e-07   4.8478828203134737e-07   6.3826219300772882e-07   1.4255974648701056e-06   1.1612869025946664e-06   2.6383087535628865e-06   1.9795817607497762e-06   3.4245668785998926e-06   2.6196215989206609e-06   2.4616638348588444e-06   1.4130982679339269e-06   2.2023504293413208e-06   1.4427491772278984e-06   1.7906592942914162e-06   1.6078265877679326e-06   1.4626236281075911e-06   1.8046906509326888e-06   1.4103902312467074e-06   1.9172919791924591e-06   1.6645657535318622e-06   1.8795702786788945e-06   2.0765423266400731e-06   1.7142180994857570e-06   2.4153150917564404e-06   1.5193671571701958e-06   1.2951200617473989e-06   3.1284717673745899e-07   1.8955391449553793e-06   8.4549125263079446e-07   2.4988300140525020e-06   1.9006213159891291e-06   2.7491282205059353e-06   2.8588687585874066e-06   2.4998538034159790e-06   3.1587995324551105e-06   1.8969868717474163e-06   2.6246515205501203e-06   1.2935461200048029e-06   1.5695186276047858e-06   1.0475838727325226e-06   6.1028612788780549e-07   4.8419806717369590e-07   4.7558808147198174e-08   1.6164240750199013e-06   7.2371453374556035e-07   2.8588691396864675e-06   2.0560172438253788e-06   3.4818947559954985e-06   3.2668801725482655e-06   3.1210024108188525e-06   3.6470423881660049e-06   1.9874929513333964e-06   2.9736532093488365e-06   7.4549455181908502e-07   1.6411638104063175e-06   1.2215815850670789e-07   4.3002324965085526e-07   </DataArray> 
</CellData> 
</Piece>
</UnstructuredGrid>
</VTKFile>