<?xml version="1.0"?>
<VTKFile type="UnstructuredGrid"  version="0.1"  >
<UnstructuredGrid>
<Piece  NumberOfPoints="81" NumberOfCells="128">
<Points>
<DataArray  type="Float64"  NumberOfComponents="3"  format="ascii">0 0 0  0.125 0 0  0.25 0 0  0.375 0 0  0.5 0 0  0.625 0 0  0.75 0 0  0.875 0 0  1 0 0  0 0.125 0  0.125 0.125 0  0.25 0.125 0  0.375 0.125 0  0.5 0.125 0  0.625 0.125 0  0.75 0.125 0  0.875 0.125 0  1 0.125 0  0 0.25 0  0.125 0.25 0  0.25 0.25 0  0.375 0.25 0  0.5 0.25 0  0.625 0.25 0  0.75 0.25 0  0.875 0.25 0  1 0.25 0  0 0.375 0  0.125 0.375 0  0.25 0.375 0  0.375 0.375 0  0.5 0.375 0  0.625 0.375 0  0.75 0.375 0  0.875 0.375 0  1 0.375 0  0 0.5 0  0.125 0.5 0  0.25 0.5 0  0.375 0.5 0  0.5 0.5 0  0.625 0.5 0  0.75 0.5 0  0.875 0.5 0  1 0.5 0  0 0.625 0  0.125 0.625 0  0.25 0.625 0  0.375 0.625 0  0.5 0.625 0  0.625 0.625 0  0.75 0.625 0  0.875 0.625 0  1 0.625 0  0 0.75 0  0.125 0.75 0  0.25 0.75 0  0.375 0.75 0  0.5 0.75 0  0.625 0.75 0  0.75 0.75 0  0.875 0.75 0  1 0.75 0  0 0.875 0  0.125 0.875 0  0.25 0.875 0  0.375 0.875 0  0.5 0.875 0  0.625 0.875 0  0.75 0.875 0  0.875 0.875 0  1 0.875 0  0 1 0  0.125 1 0  0.25 1 0  0.375 1 0  0.5 1 0  0.625 1 0  0.75 1 0  0.875 1 0  1 1 0  </DataArray>
</Points>
<Cells>
<DataArray  type="UInt32"  Name="connectivity"  format="ascii">0 1 10  0 9 10  1 2 11  1 10 11  2 3 12  2 11 12  3 4 13  3 12 13  4 5 14  4 13 14  5 6 15  5 14 15  6 7 16  6 15 16  7 8 17  7 16 17  9 10 19  9 18 19  10 11 20  10 19 20  11 12 21  11 20 21  12 13 22  12 21 22  13 14 23  13 22 23  14 15 24  14 23 24  15 16 25  15 24 25  16 17 26  16 25 26  18 19 28  18 27 28  19 20 29  19 28 29  20 21 30  20 29 30  21 22 31  21 30 31  22 23 32  22 31 32  23 24 33  23 32 33  24 25 34  24 33 34  25 26 35  25 34 35  27 28 37  27 36 37  28 29 38  28 37 38  29 30 39  29 38 39  30 31 40  30 39 40  31 32 41  31 40 41  32 33 42  32 41 42  33 34 43  33 42 43  34 35 44  34 43 44  36 37 46  36 45 46  37 38 47  37 46 47  38 39 48  38 47 48  39 40 49  39 48 49  40 41 50  40 49 50  41 42 51  41 50 51  42 43 52  42 51 52  43 44 53  43 52 53  45 46 55  45 54 55  46 47 56  46 55 56  47 48 57  47 56 57  48 49 58  48 57 58  49 50 59  49 58 59  50 51 60  50 59 60  51 52 61  51 60 61  52 53 62  52 61 62  54 55 64  54 63 64  55 56 65  55 64 65  56 57 66  56 65 66  57 58 67  57 66 67  58 59 68  58 67 68  59 60 69  59 68 69  60 61 70  60 69 70  61 62 71  61 70 71  63 64 73  63 72 73  64 65 74  64 73 74  65 66 75  65 74 75  66 67 76  66 75 76  67 68 77  67 76 77  68 69 78  68 77 78  69 70 79  69 78 79  70 71 80  70 79 80  </DataArray>
<DataArray  type="UInt32"  Name="offsets"  format="ascii">3 6 9 12 15 18 21 24 27 30 33 36 39 42 45 48 51 54 57 60 63 66 69 72 75 78 81 84 87 90 93 96 99 102 105 108 111 114 117 120 123 126 129 132 135 138 141 144 147 150 153 156 159 162 165 168 171 174 177 180 183 186 189 192 195 198 201 204 207 210 213 216 219 222 225 228 231 234 237 240 243 246 249 252 255 258 261 264 267 270 273 276 279 282 285 288 291 294 297 300 303 306 309 312 315 318 321 324 327 330 333 336 339 342 345 348 351 354 357 360 363 366 369 372 375 378 381 384 </DataArray>
<DataArray  type="UInt8"  Name="types"  format="ascii">5 5 5 5 5 5 5 5 5 5 5 5 5 5 5 5 5 5 5 5 5 5 5 5 5 5 5 5 5 5 5 5 5 5 5 5 5 5 5 5 5 5 5 5 5 5 5 5 5 5 5 5 5 5 5 5 5 5 5 5 5 5 5 5 5 5 5 5 5 5 5 5 5 5 5 5 5 5 5 5 5 5 5 5 5 5 5 5 5 5 5 5 5 5 5 5 5 5 5 5 5 5 5 5 5 5 5 5 5 5 5 5 5 5 5 5 5 5 5 5 5 5 5 5 5 5 5 5 </DataArray>
</Cells>
<CellData  Scalars="f_47792"> 
<DataArray  type="Float64"  Name="f_47792"  format="ascii">3.9395387062974698e-37   3.9395387062974698e-37   2.9060832561995474e-37   2.9060832561995474e-37   1.0579449157400599e-36   1.0579449157400599e-36   1.1554129889957412e-36   1.1554129889957412e-36   1.3910016484730401e-37   1.3910016484730401e-37   5.2244193369879499e-38   5.2244193369879499e-38   2.0897677347951800e-37   2.0897677347951800e-37   6.3346084460978811e-38   6.3346084460978811e-38   1.6522226153224376e-37   1.6522226153224376e-37   1.8807909613156620e-36   1.8807909613156620e-36   1.0448838673975900e-36   1.0448838673975900e-36   8.2153994074135390e-36   8.2153994074135390e-36   2.4484567749002562e-36   2.4484567749002562e-36   2.0897677347951800e-37   2.0897677347951800e-37   2.0897677347951770e-36   2.0897677347951770e-36   1.1833309798277700e-36   1.1833309798277700e-36   2.6122096684939751e-37   2.6122096684939751e-37   1.0448838673975900e-36   1.0448838673975900e-36   1.3896955436387945e-36   1.3896955436387945e-36   1.0326391345765236e-36   1.0326391345765236e-36   1.1996572902558573e-36   1.1996572902558573e-36   1.2747583182250584e-36   1.2747583182250584e-36   3.3436283756722880e-36   3.3436283756722880e-36   8.3590709391807199e-37   8.3590709391807199e-37   6.6121557233753745e-38   6.6121557233753745e-38   1.3061048342469875e-38   1.3061048342469875e-38   7.6488764355589206e-37   7.6488764355589206e-37   3.1417752306100254e-37   3.1417752306100254e-37   6.3497102832438597e-37   6.3497102832438597e-37   1.5542647527539129e-36   1.5542647527539129e-36   2.1937663322220937e-36   2.1937663322220937e-36   3.5526051491517992e-37   3.5526051491517992e-37   9.0904896463590329e-37   9.0904896463590329e-37   5.0415646601933652e-37   5.0415646601933652e-37   9.7468073255681437e-38   9.7468073255681437e-38   5.2202153120527159e-36   5.2202153120527159e-36   1.3733411723646585e-36   1.3733411723646585e-36   1.1890860042536710e-36   1.1890860042536710e-36   6.3563224389672345e-36   6.3563224389672345e-36   1.8889541165297039e-37   1.8889541165297039e-37   3.8660703093710769e-37   3.8660703093710769e-37   0.0000000000000000e+00   0.0000000000000000e+00   6.0603264309060208e-37   6.0603264309060208e-37   4.6949661089025879e-36   4.6949570898050757e-36   5.5333947618394969e-37   5.5334849528146175e-37   9.5345652900030091e-37   9.5345652900030091e-37   2.6122096684939751e-37   2.6122096684939751e-37   2.2203782182198785e-37   2.2203782182198785e-37   5.3550298204126483e-37   5.3550298204126483e-37   8.3590709391807199e-37   8.3590709391807199e-37   1.5464281237484307e-36   1.5464281237484307e-36   1.2990845207629095e-36   1.2990845207629095e-36   9.1639580432854258e-37   9.1639580432854258e-37   5.0676867568783085e-36   5.0676867568783085e-36   5.4333961104674613e-37   5.4333961104674613e-37   3.6375019633778541e-37   3.6375019633778541e-37   1.9591572513704789e-37   1.9591572513704789e-37   1.1807187701592764e-36   1.1807187701592764e-36   2.6122096684939751e-37   2.6122096684939751e-37   1.7764288419410716e-37   1.7763025745759025e-37   7.3141870717831222e-37   7.3143133391482914e-37   1.3061048342469875e-38   1.3061048342469875e-38   3.2652620856174687e-37   3.2652620856174687e-37   1.2538606408771076e-37   1.2538606408771076e-37   </DataArray> 
</CellData> 
</Piece>
</UnstructuredGrid>
</VTKFile>