<?xml version="1.0"?>
<VTKFile type="UnstructuredGrid"  version="0.1"  >
<UnstructuredGrid>
<Piece  NumberOfPoints="25" NumberOfCells="32">
<Points>
<DataArray  type="Float64"  NumberOfComponents="3"  format="ascii">0 0 0  0.25 0 0  0.5 0 0  0.75 0 0  1 0 0  0 0.25 0  0.25 0.25 0  0.5 0.25 0  0.75 0.25 0  1 0.25 0  0 0.5 0  0.25 0.5 0  0.5 0.5 0  0.75 0.5 0  1 0.5 0  0 0.75 0  0.25 0.75 0  0.5 0.75 0  0.75 0.75 0  1 0.75 0  0 1 0  0.25 1 0  0.5 1 0  0.75 1 0  1 1 0  </DataArray>
</Points>
<Cells>
<DataArray  type="UInt32"  Name="connectivity"  format="ascii">0 1 6  0 5 6  1 2 7  1 6 7  2 3 8  2 7 8  3 4 9  3 8 9  5 6 11  5 10 11  6 7 12  6 11 12  7 8 13  7 12 13  8 9 14  8 13 14  10 11 16  10 15 16  11 12 17  11 16 17  12 13 18  12 17 18  13 14 19  13 18 19  15 16 21  15 20 21  16 17 22  16 21 22  17 18 23  17 22 23  18 19 24  18 23 24  </DataArray>
<DataArray  type="UInt32"  Name="offsets"  format="ascii">3 6 9 12 15 18 21 24 27 30 33 36 39 42 45 48 51 54 57 60 63 66 69 72 75 78 81 84 87 90 93 96 </DataArray>
<DataArray  type="UInt8"  Name="types"  format="ascii">5 5 5 5 5 5 5 5 5 5 5 5 5 5 5 5 5 5 5 5 5 5 5 5 5 5 5 5 5 5 5 5 </DataArray>
</Cells>
<CellData  Scalars="f_64901"> 
<DataArray  type="Float64"  Name="f_64901"  format="ascii">1.8367099231598262e-39   1.8367099231598262e-39   2.0407888035109180e-38   2.0407888035109180e-38   7.6407132803448730e-38   7.6407132803448730e-38   1.0971280607674680e-37   1.0971280607674680e-37   4.0832102380646382e-37   4.0832102380646382e-37   9.3491377432038640e-37   9.3487769793033815e-37   2.9583274495694250e-37   2.9586882134699079e-37   2.0897677347951761e-38   2.0897677347951761e-38   2.2203782182198785e-37   2.2203782182198785e-37   2.8781389530309208e-37   2.8766958974289885e-37   9.3780830253950477e-37   9.3795260809969795e-37   2.9583274495694250e-37   2.9583274495694250e-37   2.6122096684939750e-38   2.6122096684939750e-38   9.2217855811946483e-37   9.2211001297837302e-37   1.9395656788567761e-37   1.9402511302676938e-37   1.3910016484730401e-37   1.3910016484730401e-37   </DataArray> 
</CellData> 
</Piece>
</UnstructuredGrid>
</VTKFile>