<?xml version="1.0"?>
<VTKFile type="UnstructuredGrid"  version="0.1"  >
<UnstructuredGrid>
<Piece  NumberOfPoints="25" NumberOfCells="32">
<Points>
<DataArray  type="Float64"  NumberOfComponents="3"  format="ascii">0 0 0  0.25 0 0  0.5 0 0  0.75 0 0  1 0 0  0 0.25 0  0.25 0.25 0  0.5 0.25 0  0.75 0.25 0  1 0.25 0  0 0.5 0  0.25 0.5 0  0.5 0.5 0  0.75 0.5 0  1 0.5 0  0 0.75 0  0.25 0.75 0  0.5 0.75 0  0.75 0.75 0  1 0.75 0  0 1 0  0.25 1 0  0.5 1 0  0.75 1 0  1 1 0  </DataArray>
</Points>
<Cells>
<DataArray  type="UInt32"  Name="connectivity"  format="ascii">0 1 6  0 5 6  1 2 7  1 6 7  2 3 8  2 7 8  3 4 9  3 8 9  5 6 11  5 10 11  6 7 12  6 11 12  7 8 13  7 12 13  8 9 14  8 13 14  10 11 16  10 15 16  11 12 17  11 16 17  12 13 18  12 17 18  13 14 19  13 18 19  15 16 21  15 20 21  16 17 22  16 21 22  17 18 23  17 22 23  18 19 24  18 23 24  </DataArray>
<DataArray  type="UInt32"  Name="offsets"  format="ascii">3 6 9 12 15 18 21 24 27 30 33 36 39 42 45 48 51 54 57 60 63 66 69 72 75 78 81 84 87 90 93 96 </DataArray>
<DataArray  type="UInt8"  Name="types"  format="ascii">5 5 5 5 5 5 5 5 5 5 5 5 5 5 5 5 5 5 5 5 5 5 5 5 5 5 5 5 5 5 5 5 </DataArray>
</Cells>
<CellData  Scalars="f_47652"> 
<DataArray  type="Float64"  Name="f_47652"  format="ascii">4.6148157386237317e-04   5.0621975191276689e-04   6.4079096874348273e-05   6.1013739607686875e-04   1.9524214909679184e-04   7.3236500430229085e-04   4.9583485172892160e-05   8.4632270932827292e-05   5.1896290299953732e-04   2.3451304038136004e-04   7.1388198053594864e-04   4.5139478161147816e-04   6.9192566805641100e-04   6.5528306277262273e-05   3.0406205423362987e-04   5.7840947307326188e-04   5.9643385667681212e-04   3.2021889806532105e-04   6.5448192844459938e-05   6.9351597934464034e-04   4.5965680249518106e-04   7.2368822748392536e-04   2.3049961341769674e-04   5.2561095081044874e-04   8.8663143392352681e-05   5.1946389529729267e-05   7.2089041640606129e-04   1.8437052164456492e-04   6.1663352686580988e-04   6.0089885997218951e-05   4.9736429510967967e-04   4.5218082010752155e-04   </DataArray> 
</CellData> 
</Piece>
</UnstructuredGrid>
</VTKFile>