<?xml version="1.0"?>
<VTKFile type="UnstructuredGrid"  version="0.1"  >
<UnstructuredGrid>
<Piece  NumberOfPoints="81" NumberOfCells="128">
<Points>
<DataArray  type="Float64"  NumberOfComponents="3"  format="ascii">0 0 0  0.125 0 0  0.25 0 0  0.375 0 0  0.5 0 0  0.625 0 0  0.75 0 0  0.875 0 0  1 0 0  0 0.125 0  0.125 0.125 0  0.25 0.125 0  0.375 0.125 0  0.5 0.125 0  0.625 0.125 0  0.75 0.125 0  0.875 0.125 0  1 0.125 0  0 0.25 0  0.125 0.25 0  0.25 0.25 0  0.375 0.25 0  0.5 0.25 0  0.625 0.25 0  0.75 0.25 0  0.875 0.25 0  1 0.25 0  0 0.375 0  0.125 0.375 0  0.25 0.375 0  0.375 0.375 0  0.5 0.375 0  0.625 0.375 0  0.75 0.375 0  0.875 0.375 0  1 0.375 0  0 0.5 0  0.125 0.5 0  0.25 0.5 0  0.375 0.5 0  0.5 0.5 0  0.625 0.5 0  0.75 0.5 0  0.875 0.5 0  1 0.5 0  0 0.625 0  0.125 0.625 0  0.25 0.625 0  0.375 0.625 0  0.5 0.625 0  0.625 0.625 0  0.75 0.625 0  0.875 0.625 0  1 0.625 0  0 0.75 0  0.125 0.75 0  0.25 0.75 0  0.375 0.75 0  0.5 0.75 0  0.625 0.75 0  0.75 0.75 0  0.875 0.75 0  1 0.75 0  0 0.875 0  0.125 0.875 0  0.25 0.875 0  0.375 0.875 0  0.5 0.875 0  0.625 0.875 0  0.75 0.875 0  0.875 0.875 0  1 0.875 0  0 1 0  0.125 1 0  0.25 1 0  0.375 1 0  0.5 1 0  0.625 1 0  0.75 1 0  0.875 1 0  1 1 0  </DataArray>
</Points>
<Cells>
<DataArray  type="UInt32"  Name="connectivity"  format="ascii">0 1 10  0 9 10  1 2 11  1 10 11  2 3 12  2 11 12  3 4 13  3 12 13  4 5 14  4 13 14  5 6 15  5 14 15  6 7 16  6 15 16  7 8 17  7 16 17  9 10 19  9 18 19  10 11 20  10 19 20  11 12 21  11 20 21  12 13 22  12 21 22  13 14 23  13 22 23  14 15 24  14 23 24  15 16 25  15 24 25  16 17 26  16 25 26  18 19 28  18 27 28  19 20 29  19 28 29  20 21 30  20 29 30  21 22 31  21 30 31  22 23 32  22 31 32  23 24 33  23 32 33  24 25 34  24 33 34  25 26 35  25 34 35  27 28 37  27 36 37  28 29 38  28 37 38  29 30 39  29 38 39  30 31 40  30 39 40  31 32 41  31 40 41  32 33 42  32 41 42  33 34 43  33 42 43  34 35 44  34 43 44  36 37 46  36 45 46  37 38 47  37 46 47  38 39 48  38 47 48  39 40 49  39 48 49  40 41 50  40 49 50  41 42 51  41 50 51  42 43 52  42 51 52  43 44 53  43 52 53  45 46 55  45 54 55  46 47 56  46 55 56  47 48 57  47 56 57  48 49 58  48 57 58  49 50 59  49 58 59  50 51 60  50 59 60  51 52 61  51 60 61  52 53 62  52 61 62  54 55 64  54 63 64  55 56 65  55 64 65  56 57 66  56 65 66  57 58 67  57 66 67  58 59 68  58 67 68  59 60 69  59 68 69  60 61 70  60 69 70  61 62 71  61 70 71  63 64 73  63 72 73  64 65 74  64 73 74  65 66 75  65 74 75  66 67 76  66 75 76  67 68 77  67 76 77  68 69 78  68 77 78  69 70 79  69 78 79  70 71 80  70 79 80  </DataArray>
<DataArray  type="UInt32"  Name="offsets"  format="ascii">3 6 9 12 15 18 21 24 27 30 33 36 39 42 45 48 51 54 57 60 63 66 69 72 75 78 81 84 87 90 93 96 99 102 105 108 111 114 117 120 123 126 129 132 135 138 141 144 147 150 153 156 159 162 165 168 171 174 177 180 183 186 189 192 195 198 201 204 207 210 213 216 219 222 225 228 231 234 237 240 243 246 249 252 255 258 261 264 267 270 273 276 279 282 285 288 291 294 297 300 303 306 309 312 315 318 321 324 327 330 333 336 339 342 345 348 351 354 357 360 363 366 369 372 375 378 381 384 </DataArray>
<DataArray  type="UInt8"  Name="types"  format="ascii">5 5 5 5 5 5 5 5 5 5 5 5 5 5 5 5 5 5 5 5 5 5 5 5 5 5 5 5 5 5 5 5 5 5 5 5 5 5 5 5 5 5 5 5 5 5 5 5 5 5 5 5 5 5 5 5 5 5 5 5 5 5 5 5 5 5 5 5 5 5 5 5 5 5 5 5 5 5 5 5 5 5 5 5 5 5 5 5 5 5 5 5 5 5 5 5 5 5 5 5 5 5 5 5 5 5 5 5 5 5 5 5 5 5 5 5 5 5 5 5 5 5 5 5 5 5 5 5 </DataArray>
</Cells>
<CellData  Scalars="f_34907"> 
<DataArray  type="Float64"  Name="f_34907"  format="ascii">3.4636739193538166e-03   2.9025172596694941e-03   2.5482248494698842e-03   2.1233967961933995e-03   1.2283239253367507e-03   1.0214818674072453e-03   2.7676171159935007e-04   2.4433473346564968e-04   2.5169124902705691e-04   2.5211394830387655e-04   1.1687596676847214e-03   1.0471417666174387e-03   2.4907780276408414e-03   2.1728142616736792e-03   3.4407942604091149e-03   2.9803071376362789e-03   3.0437574036942736e-03   1.7632075908558279e-03   2.5755498955658627e-03   1.4315298260404335e-03   1.7465546569868581e-03   1.0637278298255733e-03   1.0461831891273388e-03   8.7814640678097143e-04   8.9172194264354259e-04   9.9107449137425009e-04   1.3818801284509654e-03   1.3471179636351045e-03   2.2376144510484449e-03   1.7516446624715192e-03   2.9624122285316842e-03   1.9826236600106071e-03   2.0736116866391795e-03   5.9400787761738308e-04   2.3421086607519929e-03   7.5591513175359416e-04   2.3729079048158599e-03   1.2607617952697504e-03   2.1557769035863506e-03   1.8141439453013403e-03   1.8279894832439511e-03   2.0979566877905595e-03   1.5927099891678022e-03   1.9548410775892472e-03   1.5994046493689709e-03   1.4799371964550933e-03   1.8531138574787280e-03   9.6284803914012157e-04   1.0356801962069697e-03   1.1264584128065117e-05   1.9493796417606227e-03   4.5285056892820595e-04   2.7706685063351032e-03   1.5107388027476734e-03   3.0254152391806558e-03   2.5635574095106634e-03   2.5718554467934873e-03   2.9955456314989682e-03   1.6836309965809354e-03   2.5557725904594075e-03   8.9003676180854580e-04   1.5045331436908120e-03   6.6479735403683919e-04   4.5998052733134783e-04   4.7403537079876326e-04   3.2963425641992027e-04   1.5934132984718728e-03   6.8543153769264336e-04   2.7116719769792593e-03   1.6745733973804757e-03   3.1751740698899504e-03   2.7136304507343325e-03   2.7128096660794039e-03   3.1893453704815371e-03   1.5957512507196415e-03   2.8173685479054322e-03   4.8001763640022831e-04   1.8085117609522570e-03   2.4058143160932662e-05   7.4661885307691954e-04   6.9221406857852114e-04   1.3836436796707124e-03   1.4679651457433520e-03   1.3340965577541383e-03   2.2294196648358104e-03   1.6675654122775621e-03   2.5251974458370568e-03   2.1847762478903942e-03   2.1751281662496453e-03   2.5756189102659854e-03   1.3769023485486079e-03   2.6012067331617180e-03   5.9190633193665992e-04   2.2340841380585580e-03   2.7930712303530055e-04   1.6774863909787064e-03   1.5810465817109778e-03   2.6262934956153843e-03   1.6540415012947125e-03   2.0674744445800604e-03   1.6001748932216082e-03   1.5087748215483160e-03   1.4419840914979393e-03   1.2764310816375129e-03   1.2620743608303278e-03   1.5015325009360826e-03   1.1551271545415839e-03   2.0440898634843763e-03   1.1736441686210487e-03   2.5759223155792420e-03   1.3021693834125239e-03   2.7762897688995395e-03   2.6812150577083765e-03   3.4407942604091283e-03   2.0631335732402287e-03   2.5278046806292516e-03   1.1639773959154656e-03   1.2971120852280590e-03   5.0331687277355250e-04   4.7386624272108074e-04   4.6096960647163017e-04   5.4093857945623964e-04   1.0539861945040928e-03   1.4577763192592953e-03   1.9271635790564440e-03   2.6856036752449866e-03   2.5644477759266884e-03   3.5050810912152751e-03   </DataArray> 
</CellData> 
</Piece>
</UnstructuredGrid>
</VTKFile>