<?xml version="1.0"?>
<VTKFile type="UnstructuredGrid"  version="0.1"  >
<UnstructuredGrid>
<Piece  NumberOfPoints="81" NumberOfCells="128">
<Points>
<DataArray  type="Float64"  NumberOfComponents="3"  format="ascii">0 0 0  0.125 0 0  0.25 0 0  0.375 0 0  0.5 0 0  0.625 0 0  0.75 0 0  0.875 0 0  1 0 0  0 0.125 0  0.125 0.125 0  0.25 0.125 0  0.375 0.125 0  0.5 0.125 0  0.625 0.125 0  0.75 0.125 0  0.875 0.125 0  1 0.125 0  0 0.25 0  0.125 0.25 0  0.25 0.25 0  0.375 0.25 0  0.5 0.25 0  0.625 0.25 0  0.75 0.25 0  0.875 0.25 0  1 0.25 0  0 0.375 0  0.125 0.375 0  0.25 0.375 0  0.375 0.375 0  0.5 0.375 0  0.625 0.375 0  0.75 0.375 0  0.875 0.375 0  1 0.375 0  0 0.5 0  0.125 0.5 0  0.25 0.5 0  0.375 0.5 0  0.5 0.5 0  0.625 0.5 0  0.75 0.5 0  0.875 0.5 0  1 0.5 0  0 0.625 0  0.125 0.625 0  0.25 0.625 0  0.375 0.625 0  0.5 0.625 0  0.625 0.625 0  0.75 0.625 0  0.875 0.625 0  1 0.625 0  0 0.75 0  0.125 0.75 0  0.25 0.75 0  0.375 0.75 0  0.5 0.75 0  0.625 0.75 0  0.75 0.75 0  0.875 0.75 0  1 0.75 0  0 0.875 0  0.125 0.875 0  0.25 0.875 0  0.375 0.875 0  0.5 0.875 0  0.625 0.875 0  0.75 0.875 0  0.875 0.875 0  1 0.875 0  0 1 0  0.125 1 0  0.25 1 0  0.375 1 0  0.5 1 0  0.625 1 0  0.75 1 0  0.875 1 0  1 1 0  </DataArray>
</Points>
<Cells>
<DataArray  type="UInt32"  Name="connectivity"  format="ascii">0 1 10  0 9 10  1 2 11  1 10 11  2 3 12  2 11 12  3 4 13  3 12 13  4 5 14  4 13 14  5 6 15  5 14 15  6 7 16  6 15 16  7 8 17  7 16 17  9 10 19  9 18 19  10 11 20  10 19 20  11 12 21  11 20 21  12 13 22  12 21 22  13 14 23  13 22 23  14 15 24  14 23 24  15 16 25  15 24 25  16 17 26  16 25 26  18 19 28  18 27 28  19 20 29  19 28 29  20 21 30  20 29 30  21 22 31  21 30 31  22 23 32  22 31 32  23 24 33  23 32 33  24 25 34  24 33 34  25 26 35  25 34 35  27 28 37  27 36 37  28 29 38  28 37 38  29 30 39  29 38 39  30 31 40  30 39 40  31 32 41  31 40 41  32 33 42  32 41 42  33 34 43  33 42 43  34 35 44  34 43 44  36 37 46  36 45 46  37 38 47  37 46 47  38 39 48  38 47 48  39 40 49  39 48 49  40 41 50  40 49 50  41 42 51  41 50 51  42 43 52  42 51 52  43 44 53  43 52 53  45 46 55  45 54 55  46 47 56  46 55 56  47 48 57  47 56 57  48 49 58  48 57 58  49 50 59  49 58 59  50 51 60  50 59 60  51 52 61  51 60 61  52 53 62  52 61 62  54 55 64  54 63 64  55 56 65  55 64 65  56 57 66  56 65 66  57 58 67  57 66 67  58 59 68  58 67 68  59 60 69  59 68 69  60 61 70  60 69 70  61 62 71  61 70 71  63 64 73  63 72 73  64 65 74  64 73 74  65 66 75  65 74 75  66 67 76  66 75 76  67 68 77  67 76 77  68 69 78  68 77 78  69 70 79  69 78 79  70 71 80  70 79 80  </DataArray>
<DataArray  type="UInt32"  Name="offsets"  format="ascii">3 6 9 12 15 18 21 24 27 30 33 36 39 42 45 48 51 54 57 60 63 66 69 72 75 78 81 84 87 90 93 96 99 102 105 108 111 114 117 120 123 126 129 132 135 138 141 144 147 150 153 156 159 162 165 168 171 174 177 180 183 186 189 192 195 198 201 204 207 210 213 216 219 222 225 228 231 234 237 240 243 246 249 252 255 258 261 264 267 270 273 276 279 282 285 288 291 294 297 300 303 306 309 312 315 318 321 324 327 330 333 336 339 342 345 348 351 354 357 360 363 366 369 372 375 378 381 384 </DataArray>
<DataArray  type="UInt8"  Name="types"  format="ascii">5 5 5 5 5 5 5 5 5 5 5 5 5 5 5 5 5 5 5 5 5 5 5 5 5 5 5 5 5 5 5 5 5 5 5 5 5 5 5 5 5 5 5 5 5 5 5 5 5 5 5 5 5 5 5 5 5 5 5 5 5 5 5 5 5 5 5 5 5 5 5 5 5 5 5 5 5 5 5 5 5 5 5 5 5 5 5 5 5 5 5 5 5 5 5 5 5 5 5 5 5 5 5 5 5 5 5 5 5 5 5 5 5 5 5 5 5 5 5 5 5 5 5 5 5 5 5 5 </DataArray>
</Cells>
<CellData  Scalars="f_53352"> 
<DataArray  type="Float64"  Name="f_53352"  format="ascii">1.3885651388254926e-09   3.2729491863523765e-09   1.5904818677199410e-10   5.8437234595836269e-10   4.9600431778278999e-10   4.4004100119561246e-10   6.9543754796138854e-10   9.6275849184657669e-10   4.8869203189657319e-10   1.2523944845861866e-09   4.5280410166083664e-10   1.1968697167638701e-09   1.1194803876265568e-09   1.2840636158991154e-09   9.9414142504208397e-09   3.3703898302475684e-09   9.0530654987621344e-10   6.4659640888939035e-10   1.1442082796736242e-10   1.5693190550867914e-10   2.7821898134802068e-10   3.8210318307437102e-10   6.4372643182353551e-10   9.9582840934868296e-10   6.7809591264541401e-10   1.0403872734086438e-09   4.3529034789984050e-10   5.2395996094962231e-10   5.5094039484993575e-10   3.1389389171364448e-10   2.3481499279284162e-09   1.8942476210526981e-09   9.9889374233540091e-10   1.3908292406939327e-09   5.1712199674979519e-10   5.2823719022759184e-10   7.8744115880779246e-10   7.5675517854095495e-10   7.4083033837767101e-10   7.9657379498349880e-10   3.4525970495456580e-10   3.8472777282573843e-10   8.5513180134533997e-11   4.9150851685856346e-11   3.0049465793610609e-10   2.8581376556050590e-10   5.4222184999967987e-10   8.1985976080118353e-10   2.0772775639678162e-09   1.4116171312304338e-09   1.3003165605575949e-09   7.7132595991842640e-10   9.0927065695207193e-10   6.8406627990265746e-10   3.5562032709081104e-10   2.9891144870525255e-10   4.3174024213834564e-11   3.6111819773253408e-11   2.2328443789130789e-10   3.1099321053187104e-10   4.1096468744423949e-10   9.3757410941956158e-10   3.9105999837354655e-10   1.3841496175453196e-09   1.7893461387269699e-09   5.6960029706126455e-10   1.1483317311231667e-09   5.3152464452891346e-10   4.1905891133094302e-10   2.7636971179879657e-10   3.9088028565108704e-11   3.9392599517786713e-11   2.3560758873555837e-10   2.8608708587234812e-10   6.1166514219436746e-10   8.3575804860496426e-10   6.5904159193003290e-10   1.2534594139797586e-09   1.1343673824806853e-09   1.8715843935880806e-09   9.2611059404848813e-10   2.6495320267932257e-10   4.1702488741444179e-10   2.6179899770165919e-10   4.5341213024608033e-11   8.3724274801138946e-11   2.8230027911058687e-10   2.8672376620948895e-10   7.2937861604883271e-10   6.6808311872171331e-10   7.6922507274345483e-10   8.0163989208891070e-10   5.3897076092923487e-10   6.2032770758824367e-10   1.2849543589156646e-09   1.0696499210820368e-09   1.2293924375562660e-09   1.4596261741778613e-09   2.7701508370888461e-10   5.5596764588031854e-10   3.6998569644279110e-10   4.7349121891338137e-10   8.5080426382787998e-10   5.5041721393679224e-10   9.6311885220478801e-10   5.4199254157501853e-10   4.7089690629357716e-10   2.8500442475924894e-10   1.3815617311589855e-10   6.9821285310746355e-11   5.4648552603400592e-10   5.6296357659755459e-10   2.9986048826750523e-09   3.5462436493994167e-09   1.6583259684861230e-09   1.9345722127139887e-09   1.0460250005083989e-09   5.1492697728242464e-10   9.5040620234884331e-10   2.3346197118993599e-10   8.3236345529643764e-10   4.5840470190689165e-10   4.9197254335665721e-10   4.6279319921824029e-10   4.2344374108628931e-10   2.1831241652161006e-10   1.3630388433953590e-09   5.9824236620729924e-10   </DataArray> 
</CellData> 
</Piece>
</UnstructuredGrid>
</VTKFile>