<?xml version="1.0"?>
<VTKFile type="UnstructuredGrid"  version="0.1"  >
<UnstructuredGrid>
<Piece  NumberOfPoints="25" NumberOfCells="32">
<Points>
<DataArray  type="Float64"  NumberOfComponents="3"  format="ascii">0 0 0  0.25 0 0  0.5 0 0  0.75 0 0  1 0 0  0 0.25 0  0.25 0.25 0  0.5 0.25 0  0.75 0.25 0  1 0.25 0  0 0.5 0  0.25 0.5 0  0.5 0.5 0  0.75 0.5 0  1 0.5 0  0 0.75 0  0.25 0.75 0  0.5 0.75 0  0.75 0.75 0  1 0.75 0  0 1 0  0.25 1 0  0.5 1 0  0.75 1 0  1 1 0  </DataArray>
</Points>
<Cells>
<DataArray  type="UInt32"  Name="connectivity"  format="ascii">0 1 6  0 5 6  1 2 7  1 6 7  2 3 8  2 7 8  3 4 9  3 8 9  5 6 11  5 10 11  6 7 12  6 11 12  7 8 13  7 12 13  8 9 14  8 13 14  10 11 16  10 15 16  11 12 17  11 16 17  12 13 18  12 17 18  13 14 19  13 18 19  15 16 21  15 20 21  16 17 22  16 21 22  17 18 23  17 22 23  18 19 24  18 23 24  </DataArray>
<DataArray  type="UInt32"  Name="offsets"  format="ascii">3 6 9 12 15 18 21 24 27 30 33 36 39 42 45 48 51 54 57 60 63 66 69 72 75 78 81 84 87 90 93 96 </DataArray>
<DataArray  type="UInt8"  Name="types"  format="ascii">5 5 5 5 5 5 5 5 5 5 5 5 5 5 5 5 5 5 5 5 5 5 5 5 5 5 5 5 5 5 5 5 </DataArray>
</Cells>
<CellData  Scalars="f_64898"> 
<DataArray  type="Float64"  Name="f_64898"  format="ascii">6.8209063327092455e-05   7.8548718440810052e-05   7.7389120493954699e-05   1.6910490552361117e-04   1.4995037158890834e-05   1.0906708007029427e-04   1.9542505363595349e-05   4.0760764627517297e-05   3.5405947901366016e-04   2.7244877823050879e-04   1.7235650199292802e-04   1.5919751293214660e-04   8.8513745208651200e-05   6.4677212698129052e-05   2.3713843701322909e-04   3.3417251628408274e-04   3.3282410195285855e-04   2.3599389430205102e-04   6.4970336721592798e-05   8.8624535281764616e-05   1.5748420089427989e-04   1.7056580734086117e-04   2.7349925476787473e-04   3.5356596199063268e-04   4.1867030924883067e-05   2.0830881704637590e-05   1.0852393607906880e-04   1.4273117326164948e-05   1.6810412537125871e-04   7.7997130904061915e-05   7.9205287280561873e-05   6.8852260401452785e-05   </DataArray> 
</CellData> 
</Piece>
</UnstructuredGrid>
</VTKFile>