<?xml version="1.0"?>
<VTKFile type="UnstructuredGrid"  version="0.1"  >
<UnstructuredGrid>
<Piece  NumberOfPoints="25" NumberOfCells="32">
<Points>
<DataArray  type="Float64"  NumberOfComponents="3"  format="ascii">0 0 0  0.25 0 0  0.5 0 0  0.75 0 0  1 0 0  0 0.25 0  0.25 0.25 0  0.5 0.25 0  0.75 0.25 0  1 0.25 0  0 0.5 0  0.25 0.5 0  0.5 0.5 0  0.75 0.5 0  1 0.5 0  0 0.75 0  0.25 0.75 0  0.5 0.75 0  0.75 0.75 0  1 0.75 0  0 1 0  0.25 1 0  0.5 1 0  0.75 1 0  1 1 0  </DataArray>
</Points>
<Cells>
<DataArray  type="UInt32"  Name="connectivity"  format="ascii">0 1 6  0 5 6  1 2 7  1 6 7  2 3 8  2 7 8  3 4 9  3 8 9  5 6 11  5 10 11  6 7 12  6 11 12  7 8 13  7 12 13  8 9 14  8 13 14  10 11 16  10 15 16  11 12 17  11 16 17  12 13 18  12 17 18  13 14 19  13 18 19  15 16 21  15 20 21  16 17 22  16 21 22  17 18 23  17 22 23  18 19 24  18 23 24  </DataArray>
<DataArray  type="UInt32"  Name="offsets"  format="ascii">3 6 9 12 15 18 21 24 27 30 33 36 39 42 45 48 51 54 57 60 63 66 69 72 75 78 81 84 87 90 93 96 </DataArray>
<DataArray  type="UInt8"  Name="types"  format="ascii">5 5 5 5 5 5 5 5 5 5 5 5 5 5 5 5 5 5 5 5 5 5 5 5 5 5 5 5 5 5 5 5 </DataArray>
</Cells>
<CellData  Scalars="f_36123"> 
<DataArray  type="Float64"  Name="f_36123"  format="ascii">7.1323761099080973e-04   6.4018195616353548e-04   1.2734194323687473e-04   3.2610150486476504e-04   6.4929457521737701e-04   5.8101706656446864e-04   1.2558063333853885e-03   9.5632264866150820e-04   2.5383577911454556e-04   6.9564147927046684e-05   7.3006366518272561e-04   6.8803745535170519e-04   8.3650898785018503e-04   9.4508027632782753e-04   3.4215525248544544e-04   3.5188616002326464e-04   5.8263852279887192e-04   7.9693594711403881e-04   8.9121124188992111e-04   8.2304671474119691e-04   5.6576046104908693e-04   5.0764772157704102e-04   2.4380335038169559e-04   5.1250624967696934e-04   1.1149696284374121e-03   1.3933078474987007e-03   3.1493764286218742e-04   4.5386761585725993e-04   4.1777114916737430e-04   1.2794792669603444e-04   1.2212046684707855e-03   1.1333197079666239e-03   </DataArray> 
</CellData> 
</Piece>
</UnstructuredGrid>
</VTKFile>