<?xml version="1.0"?>
<VTKFile type="UnstructuredGrid"  version="0.1"  >
<UnstructuredGrid>
<Piece  NumberOfPoints="1089" NumberOfCells="2048">
<Points>
<DataArray  type="Float64"  NumberOfComponents="3"  format="ascii">0 0 0  0.03125 0 0  0.0625 0 0  0.09375 0 0  0.125 0 0  0.15625 0 0  0.1875 0 0  0.21875 0 0  0.25 0 0  0.28125 0 0  0.3125 0 0  0.34375 0 0  0.375 0 0  0.40625 0 0  0.4375 0 0  0.46875 0 0  0.5 0 0  0.53125 0 0  0.5625 0 0  0.59375 0 0  0.625 0 0  0.65625 0 0  0.6875 0 0  0.71875 0 0  0.75 0 0  0.78125 0 0  0.8125 0 0  0.84375 0 0  0.875 0 0  0.90625 0 0  0.9375 0 0  0.96875 0 0  1 0 0  0 0.03125 0  0.03125 0.03125 0  0.0625 0.03125 0  0.09375 0.03125 0  0.125 0.03125 0  0.15625 0.03125 0  0.1875 0.03125 0  0.21875 0.03125 0  0.25 0.03125 0  0.28125 0.03125 0  0.3125 0.03125 0  0.34375 0.03125 0  0.375 0.03125 0  0.40625 0.03125 0  0.4375 0.03125 0  0.46875 0.03125 0  0.5 0.03125 0  0.53125 0.03125 0  0.5625 0.03125 0  0.59375 0.03125 0  0.625 0.03125 0  0.65625 0.03125 0  0.6875 0.03125 0  0.71875 0.03125 0  0.75 0.03125 0  0.78125 0.03125 0  0.8125 0.03125 0  0.84375 0.03125 0  0.875 0.03125 0  0.90625 0.03125 0  0.9375 0.03125 0  0.96875 0.03125 0  1 0.03125 0  0 0.0625 0  0.03125 0.0625 0  0.0625 0.0625 0  0.09375 0.0625 0  0.125 0.0625 0  0.15625 0.0625 0  0.1875 0.0625 0  0.21875 0.0625 0  0.25 0.0625 0  0.28125 0.0625 0  0.3125 0.0625 0  0.34375 0.0625 0  0.375 0.0625 0  0.40625 0.0625 0  0.4375 0.0625 0  0.46875 0.0625 0  0.5 0.0625 0  0.53125 0.0625 0  0.5625 0.0625 0  0.59375 0.0625 0  0.625 0.0625 0  0.65625 0.0625 0  0.6875 0.0625 0  0.71875 0.0625 0  0.75 0.0625 0  0.78125 0.0625 0  0.8125 0.0625 0  0.84375 0.0625 0  0.875 0.0625 0  0.90625 0.0625 0  0.9375 0.0625 0  0.96875 0.0625 0  1 0.0625 0  0 0.09375 0  0.03125 0.09375 0  0.0625 0.09375 0  0.09375 0.09375 0  0.125 0.09375 0  0.15625 0.09375 0  0.1875 0.09375 0  0.21875 0.09375 0  0.25 0.09375 0  0.28125 0.09375 0  0.3125 0.09375 0  0.34375 0.09375 0  0.375 0.09375 0  0.40625 0.09375 0  0.4375 0.09375 0  0.46875 0.09375 0  0.5 0.09375 0  0.53125 0.09375 0  0.5625 0.09375 0  0.59375 0.09375 0  0.625 0.09375 0  0.65625 0.09375 0  0.6875 0.09375 0  0.71875 0.09375 0  0.75 0.09375 0  0.78125 0.09375 0  0.8125 0.09375 0  0.84375 0.09375 0  0.875 0.09375 0  0.90625 0.09375 0  0.9375 0.09375 0  0.96875 0.09375 0  1 0.09375 0  0 0.125 0  0.03125 0.125 0  0.0625 0.125 0  0.09375 0.125 0  0.125 0.125 0  0.15625 0.125 0  0.1875 0.125 0  0.21875 0.125 0  0.25 0.125 0  0.28125 0.125 0  0.3125 0.125 0  0.34375 0.125 0  0.375 0.125 0  0.40625 0.125 0  0.4375 0.125 0  0.46875 0.125 0  0.5 0.125 0  0.53125 0.125 0  0.5625 0.125 0  0.59375 0.125 0  0.625 0.125 0  0.65625 0.125 0  0.6875 0.125 0  0.71875 0.125 0  0.75 0.125 0  0.78125 0.125 0  0.8125 0.125 0  0.84375 0.125 0  0.875 0.125 0  0.90625 0.125 0  0.9375 0.125 0  0.96875 0.125 0  1 0.125 0  0 0.15625 0  0.03125 0.15625 0  0.0625 0.15625 0  0.09375 0.15625 0  0.125 0.15625 0  0.15625 0.15625 0  0.1875 0.15625 0  0.21875 0.15625 0  0.25 0.15625 0  0.28125 0.15625 0  0.3125 0.15625 0  0.34375 0.15625 0  0.375 0.15625 0  0.40625 0.15625 0  0.4375 0.15625 0  0.46875 0.15625 0  0.5 0.15625 0  0.53125 0.15625 0  0.5625 0.15625 0  0.59375 0.15625 0  0.625 0.15625 0  0.65625 0.15625 0  0.6875 0.15625 0  0.71875 0.15625 0  0.75 0.15625 0  0.78125 0.15625 0  0.8125 0.15625 0  0.84375 0.15625 0  0.875 0.15625 0  0.90625 0.15625 0  0.9375 0.15625 0  0.96875 0.15625 0  1 0.15625 0  0 0.1875 0  0.03125 0.1875 0  0.0625 0.1875 0  0.09375 0.1875 0  0.125 0.1875 0  0.15625 0.1875 0  0.1875 0.1875 0  0.21875 0.1875 0  0.25 0.1875 0  0.28125 0.1875 0  0.3125 0.1875 0  0.34375 0.1875 0  0.375 0.1875 0  0.40625 0.1875 0  0.4375 0.1875 0  0.46875 0.1875 0  0.5 0.1875 0  0.53125 0.1875 0  0.5625 0.1875 0  0.59375 0.1875 0  0.625 0.1875 0  0.65625 0.1875 0  0.6875 0.1875 0  0.71875 0.1875 0  0.75 0.1875 0  0.78125 0.1875 0  0.8125 0.1875 0  0.84375 0.1875 0  0.875 0.1875 0  0.90625 0.1875 0  0.9375 0.1875 0  0.96875 0.1875 0  1 0.1875 0  0 0.21875 0  0.03125 0.21875 0  0.0625 0.21875 0  0.09375 0.21875 0  0.125 0.21875 0  0.15625 0.21875 0  0.1875 0.21875 0  0.21875 0.21875 0  0.25 0.21875 0  0.28125 0.21875 0  0.3125 0.21875 0  0.34375 0.21875 0  0.375 0.21875 0  0.40625 0.21875 0  0.4375 0.21875 0  0.46875 0.21875 0  0.5 0.21875 0  0.53125 0.21875 0  0.5625 0.21875 0  0.59375 0.21875 0  0.625 0.21875 0  0.65625 0.21875 0  0.6875 0.21875 0  0.71875 0.21875 0  0.75 0.21875 0  0.78125 0.21875 0  0.8125 0.21875 0  0.84375 0.21875 0  0.875 0.21875 0  0.90625 0.21875 0  0.9375 0.21875 0  0.96875 0.21875 0  1 0.21875 0  0 0.25 0  0.03125 0.25 0  0.0625 0.25 0  0.09375 0.25 0  0.125 0.25 0  0.15625 0.25 0  0.1875 0.25 0  0.21875 0.25 0  0.25 0.25 0  0.28125 0.25 0  0.3125 0.25 0  0.34375 0.25 0  0.375 0.25 0  0.40625 0.25 0  0.4375 0.25 0  0.46875 0.25 0  0.5 0.25 0  0.53125 0.25 0  0.5625 0.25 0  0.59375 0.25 0  0.625 0.25 0  0.65625 0.25 0  0.6875 0.25 0  0.71875 0.25 0  0.75 0.25 0  0.78125 0.25 0  0.8125 0.25 0  0.84375 0.25 0  0.875 0.25 0  0.90625 0.25 0  0.9375 0.25 0  0.96875 0.25 0  1 0.25 0  0 0.28125 0  0.03125 0.28125 0  0.0625 0.28125 0  0.09375 0.28125 0  0.125 0.28125 0  0.15625 0.28125 0  0.1875 0.28125 0  0.21875 0.28125 0  0.25 0.28125 0  0.28125 0.28125 0  0.3125 0.28125 0  0.34375 0.28125 0  0.375 0.28125 0  0.40625 0.28125 0  0.4375 0.28125 0  0.46875 0.28125 0  0.5 0.28125 0  0.53125 0.28125 0  0.5625 0.28125 0  0.59375 0.28125 0  0.625 0.28125 0  0.65625 0.28125 0  0.6875 0.28125 0  0.71875 0.28125 0  0.75 0.28125 0  0.78125 0.28125 0  0.8125 0.28125 0  0.84375 0.28125 0  0.875 0.28125 0  0.90625 0.28125 0  0.9375 0.28125 0  0.96875 0.28125 0  1 0.28125 0  0 0.3125 0  0.03125 0.3125 0  0.0625 0.3125 0  0.09375 0.3125 0  0.125 0.3125 0  0.15625 0.3125 0  0.1875 0.3125 0  0.21875 0.3125 0  0.25 0.3125 0  0.28125 0.3125 0  0.3125 0.3125 0  0.34375 0.3125 0  0.375 0.3125 0  0.40625 0.3125 0  0.4375 0.3125 0  0.46875 0.3125 0  0.5 0.3125 0  0.53125 0.3125 0  0.5625 0.3125 0  0.59375 0.3125 0  0.625 0.3125 0  0.65625 0.3125 0  0.6875 0.3125 0  0.71875 0.3125 0  0.75 0.3125 0  0.78125 0.3125 0  0.8125 0.3125 0  0.84375 0.3125 0  0.875 0.3125 0  0.90625 0.3125 0  0.9375 0.3125 0  0.96875 0.3125 0  1 0.3125 0  0 0.34375 0  0.03125 0.34375 0  0.0625 0.34375 0  0.09375 0.34375 0  0.125 0.34375 0  0.15625 0.34375 0  0.1875 0.34375 0  0.21875 0.34375 0  0.25 0.34375 0  0.28125 0.34375 0  0.3125 0.34375 0  0.34375 0.34375 0  0.375 0.34375 0  0.40625 0.34375 0  0.4375 0.34375 0  0.46875 0.34375 0  0.5 0.34375 0  0.53125 0.34375 0  0.5625 0.34375 0  0.59375 0.34375 0  0.625 0.34375 0  0.65625 0.34375 0  0.6875 0.34375 0  0.71875 0.34375 0  0.75 0.34375 0  0.78125 0.34375 0  0.8125 0.34375 0  0.84375 0.34375 0  0.875 0.34375 0  0.90625 0.34375 0  0.9375 0.34375 0  0.96875 0.34375 0  1 0.34375 0  0 0.375 0  0.03125 0.375 0  0.0625 0.375 0  0.09375 0.375 0  0.125 0.375 0  0.15625 0.375 0  0.1875 0.375 0  0.21875 0.375 0  0.25 0.375 0  0.28125 0.375 0  0.3125 0.375 0  0.34375 0.375 0  0.375 0.375 0  0.40625 0.375 0  0.4375 0.375 0  0.46875 0.375 0  0.5 0.375 0  0.53125 0.375 0  0.5625 0.375 0  0.59375 0.375 0  0.625 0.375 0  0.65625 0.375 0  0.6875 0.375 0  0.71875 0.375 0  0.75 0.375 0  0.78125 0.375 0  0.8125 0.375 0  0.84375 0.375 0  0.875 0.375 0  0.90625 0.375 0  0.9375 0.375 0  0.96875 0.375 0  1 0.375 0  0 0.40625 0  0.03125 0.40625 0  0.0625 0.40625 0  0.09375 0.40625 0  0.125 0.40625 0  0.15625 0.40625 0  0.1875 0.40625 0  0.21875 0.40625 0  0.25 0.40625 0  0.28125 0.40625 0  0.3125 0.40625 0  0.34375 0.40625 0  0.375 0.40625 0  0.40625 0.40625 0  0.4375 0.40625 0  0.46875 0.40625 0  0.5 0.40625 0  0.53125 0.40625 0  0.5625 0.40625 0  0.59375 0.40625 0  0.625 0.40625 0  0.65625 0.40625 0  0.6875 0.40625 0  0.71875 0.40625 0  0.75 0.40625 0  0.78125 0.40625 0  0.8125 0.40625 0  0.84375 0.40625 0  0.875 0.40625 0  0.90625 0.40625 0  0.9375 0.40625 0  0.96875 0.40625 0  1 0.40625 0  0 0.4375 0  0.03125 0.4375 0  0.0625 0.4375 0  0.09375 0.4375 0  0.125 0.4375 0  0.15625 0.4375 0  0.1875 0.4375 0  0.21875 0.4375 0  0.25 0.4375 0  0.28125 0.4375 0  0.3125 0.4375 0  0.34375 0.4375 0  0.375 0.4375 0  0.40625 0.4375 0  0.4375 0.4375 0  0.46875 0.4375 0  0.5 0.4375 0  0.53125 0.4375 0  0.5625 0.4375 0  0.59375 0.4375 0  0.625 0.4375 0  0.65625 0.4375 0  0.6875 0.4375 0  0.71875 0.4375 0  0.75 0.4375 0  0.78125 0.4375 0  0.8125 0.4375 0  0.84375 0.4375 0  0.875 0.4375 0  0.90625 0.4375 0  0.9375 0.4375 0  0.96875 0.4375 0  1 0.4375 0  0 0.46875 0  0.03125 0.46875 0  0.0625 0.46875 0  0.09375 0.46875 0  0.125 0.46875 0  0.15625 0.46875 0  0.1875 0.46875 0  0.21875 0.46875 0  0.25 0.46875 0  0.28125 0.46875 0  0.3125 0.46875 0  0.34375 0.46875 0  0.375 0.46875 0  0.40625 0.46875 0  0.4375 0.46875 0  0.46875 0.46875 0  0.5 0.46875 0  0.53125 0.46875 0  0.5625 0.46875 0  0.59375 0.46875 0  0.625 0.46875 0  0.65625 0.46875 0  0.6875 0.46875 0  0.71875 0.46875 0  0.75 0.46875 0  0.78125 0.46875 0  0.8125 0.46875 0  0.84375 0.46875 0  0.875 0.46875 0  0.90625 0.46875 0  0.9375 0.46875 0  0.96875 0.46875 0  1 0.46875 0  0 0.5 0  0.03125 0.5 0  0.0625 0.5 0  0.09375 0.5 0  0.125 0.5 0  0.15625 0.5 0  0.1875 0.5 0  0.21875 0.5 0  0.25 0.5 0  0.28125 0.5 0  0.3125 0.5 0  0.34375 0.5 0  0.375 0.5 0  0.40625 0.5 0  0.4375 0.5 0  0.46875 0.5 0  0.5 0.5 0  0.53125 0.5 0  0.5625 0.5 0  0.59375 0.5 0  0.625 0.5 0  0.65625 0.5 0  0.6875 0.5 0  0.71875 0.5 0  0.75 0.5 0  0.78125 0.5 0  0.8125 0.5 0  0.84375 0.5 0  0.875 0.5 0  0.90625 0.5 0  0.9375 0.5 0  0.96875 0.5 0  1 0.5 0  0 0.53125 0  0.03125 0.53125 0  0.0625 0.53125 0  0.09375 0.53125 0  0.125 0.53125 0  0.15625 0.53125 0  0.1875 0.53125 0  0.21875 0.53125 0  0.25 0.53125 0  0.28125 0.53125 0  0.3125 0.53125 0  0.34375 0.53125 0  0.375 0.53125 0  0.40625 0.53125 0  0.4375 0.53125 0  0.46875 0.53125 0  0.5 0.53125 0  0.53125 0.53125 0  0.5625 0.53125 0  0.59375 0.53125 0  0.625 0.53125 0  0.65625 0.53125 0  0.6875 0.53125 0  0.71875 0.53125 0  0.75 0.53125 0  0.78125 0.531
[...]
<CellData  Scalars="f_36033"> 
<DataArray  type="Float64"  Name="f_36033"  format="ascii">2.8514154895765288e-07   2.7675562062111295e-07   3.0389048388572277e-07   3.7306600294601912e-07   3.0807286564675613e-07   3.7596040956839557e-07   3.0067452035131882e-07   3.6360445017637433e-07   2.8385132566871407e-07   3.3954888601390953e-07   2.5955496034715959e-07   3.0677071744825369e-07   2.2969821676166530e-07   2.6800081770805212e-07   1.9619325416907435e-07   2.2582845630200927e-07   1.6093720960259694e-07   1.8271334449847450e-07   1.2577392341232353e-07   1.4095649462596018e-07   9.2445327178996127e-08   1.0265356437684456e-07   6.2539868689359075e-08   6.9642925561583694e-08   3.7442603082279466e-08   4.3455587664985793e-08   1.8290207518077882e-08   2.5271585868411450e-08   5.9333584800246414e-09   1.5886003636590492e-08   9.0830899652527484e-10   1.5686818393238336e-08   3.4189780455783204e-09   2.4645973449646202e-08   1.3330360431588413e-08   4.2324381353407101e-08   3.0173563657907688e-08   6.7890911559072467e-08   5.3162275913317763e-08   1.0015479723675952e-07   8.1219968661554065e-08   1.3761031306432545e-07   1.1301663846067419e-07   1.7849203142107248e-07   1.4701338398172014e-07   2.2083845619583031e-07   1.8151255613276135e-07   2.6256134223321881e-07   2.1471050694541244e-07   3.0151747648568569e-07   2.4474883204550289e-07   3.3557897682089000e-07   2.6975776235383630e-07   3.6269688416840382e-07   2.8788007141422669e-07   3.8094999290084210e-07   2.9724945347601390e-07   3.8856361143527875e-07   2.9585170031022864e-07   3.8386203145280365e-07   2.8101742405878884e-07   3.6504965422344593e-07   1.9298409008430904e-07   3.2944321924815518e-07   3.4938119337871866e-07   2.6346869764670558e-07   3.5514864267248651e-07   3.4714319421824917e-07   3.4768385846276006e-07   3.3838160990002788e-07   3.2911745253492862e-07   3.2011979274370490e-07   3.0174014894122958e-07   2.9387156414951331e-07   2.6786354338128744e-07   2.6161650800750415e-07   2.2979883013525189e-07   2.2548462788445950e-07   1.8981620191589453e-07   1.8762360121981238e-07   1.5009349962770330e-07   1.5011236109737353e-07   1.1266026960173671e-07   1.1489213025685729e-07   7.9341387999769025e-08   8.3706056418467376e-08   5.1703871575981497e-08   5.8045863203381334e-08   3.1009982420607351e-08   3.9106420415434172e-08   1.8179173296620465e-08   2.7749765701967373e-08   1.3760851932657917e-08   2.4480037985597985e-08   1.7919376151691439e-08   2.9430441324646326e-08   3.0432125928503687e-08   4.2362906045912690e-08   5.0700936074452798e-08   6.2680618712706870e-08   7.7776622744447001e-08   8.9453088670774154e-08   1.1039581103077537e-07   1.2145293060462020e-07   1.4702878433624291e-07   1.5720308964346791e-07   1.8593664424200397e-07   1.9503283588007531e-07   2.2523570702490458e-07   2.3314052517026274e-07   2.6296678494159011e-07   2.6966087920717955e-07   2.9716682710010377e-07   3.0273440083536722e-07   3.2594036886021546e-07   3.3057654959824657e-07   3.4752848509946888e-07   3.5154456404781863e-07   3.6037388995897938e-07   3.6420068822329281e-07   3.6318414907929945e-07   3.6737341263261686e-07   3.5500876498259863e-07   3.6022922964345795e-07   3.3542604005744960e-07   3.4241925750105935e-07   2.5642842510589350e-07   3.1469666603709259e-07   3.1989146324104731e-07   2.3674926978445574e-07   3.1370770682976863e-07   3.0888471983587817e-07   2.9952487052725679e-07   2.9387919662731485e-07   2.7796451300876319e-07   2.7271872345990988e-07   2.5051021342890743e-07   2.4638176145775921e-07   2.1893513110325241e-07   2.1636680074827109e-07   1.8511149757422359e-07   1.8436368604585664e-07   1.5090731916035711e-07   1.5210325415928517e-07   1.1810952010478904e-07   1.2126116017137196e-07   8.8359158391207429e-08   9.3384413968608433e-08   6.3095454778279881e-08   6.9831888592298658e-08   4.3508334271460608e-08   5.1726006271220874e-08   3.0500190772054355e-08   3.9914942345476574e-08   2.4657860333390507e-08   3.4945545871857714e-08   2.6235699034547894e-08   3.7047411229694659e-08   3.5150383459884799e-08   4.6128441550302952e-08   5.0987678504680093e-08   6.1781981058910639e-08   7.3021002746756287e-08   8.3305248658741616e-08   1.0024120150624541e-07   1.0972843282622306e-07   1.3139653903014200e-07   1.3985344376682038e-07   1.6504156732399314e-07   1.7230098953107654e-07   1.9959324239118169e-07   2.0556437090939071e-07   2.3339246320020170e-07   2.3806819689416999e-07   2.6476913501284620e-07   2.6823013264080792e-07   2.9210895257652720e-07   2.9452383987931234e-07   3.1392044277590861e-07   3.1554151967591782e-07   3.2890158355884064e-07   3.3005506904283963e-07   3.3600705315905458e-07   3.3707624463557666e-07   3.3452186557053370e-07   3.3591983732688293e-07   3.2416389434694221e-07   3.2628521540072843e-07   3.0530681919110231e-07   3.0841205952435855e-07   2.3814536025578968e-07   2.8349549330616459e-07   2.7852926288805906e-07   2.0263252192524344e-07   2.6595297231602964e-07   2.6320496541759093e-07   2.4835419261432058e-07   2.4532682814257642e-07   2.2615235656311922e-07   2.2371719604459527e-07   2.0046821805941723e-07   1.9917134788886906e-07   1.7270149470770304e-07   1.7287010249566403e-07   1.4434278308514271e-07   1.4614338186391222e-07   1.1686825920918073e-07   1.2034000190894296e-07   9.1665492655878329e-08   9.6743004331469293e-08   6.9974826604421291e-08   7.6506556754588303e-08   5.2841826354404708e-08   6.0606574491616385e-08   4.1079706428247828e-08   4.9802604346868918e-08   3.5241713704509777e-08   4.4610250319590607e-08   3.5603740113442635e-08   4.5283984250332559e-08   4.2157413948600523e-08   5.1810308726785931e-08   5.4613731852585492e-08   6.3911152376448631e-08   7.2417021774976413e-08   8.1057176813219669e-08   9.4768718941373203e-08   1.0249041777147004e-07   1.2066012602618195e-07   1.2725540988552335e-07   1.4891304125016580e-07   1.5423768415385978e-07   1.7822689539148663e-07   1.8220830186799285e-07   2.0723085951700890e-07   2.0987291724858686e-07   2.3453928752630042e-07   2.3592375995460623e-07   2.5880886069431753e-07   2.5909291581362026e-07   2.7879593201211712e-07   2.7820538487759483e-07   2.9341288128455336e-07   2.9223066143606599e-07   3.0178295093137673e-07   3.0033214492507712e-07   3.0329460194210612e-07   3.0191494708001066e-07   2.9766082277557635e-07   2.9667576685445468e-07   2.8500145656300322e-07   2.8466645681220610e-07   2.6599518125563059e-07   2.6640004622431271e-07   2.0921930948194623e-07   2.4303755471201913e-07   2.3133592783889055e-07   1.6533360788574378e-07   2.1562993213917947e-07   2.1450042724075756e-07   1.9706883889541155e-07   1.9604585826164035e-07   1.7611553242669137e-07   1.7580129183792485e-07   1.5366483950259602e-07   1.5444517069742352e-07   1.3080698318362214e-07   1.3289252970352392e-07   1.0868309822738498e-07   1.1214617613436347e-07   8.8395525099236054e-08   9.3196748645778789e-08   7.0945416342467694e-08   7.6954736827246865e-08   5.7185943883738225e-08   6.4201252750678722e-08   4.7786768152114950e-08   5.5551529588114012e-08   4.3208361484556511e-08   5.1428841187675200e-08   4.3685791715232564e-08   5.2048005925638447e-08   4.9221836898225749e-08   5.7408100896534319e-08   5.9589271419633438e-08   6.7294075221027068e-08   7.4342006318785654e-08   8.1286851536048315e-08   9.2834553869580266e-08   9.8781335250733995e-08   1.1424905668031738e-07   1.1901155580232943e-07   1.3762890017954719e-07   1.4108196985101568e-07   1.6191773335956910e-07   1.6400378259034517e-07   1.8600257096511503e-07   1.8673500526065438e-07   2.0875955296673367e-07   2.0822287680177068e-07   2.2910090455194536e-07   2.2744724626095410e-07   2.4602168393513072e-07   2.4346355251997961e-07   2.5864504926637782e-07   2.5544417038188999e-07   2.6626508369226649e-07   2.6271716572262641e-07   2.6838687210973446e-07   2.6480203757162899e-07   2.6476499246153894e-07   2.6144310013373926e-07   2.5544477215956403e-07   2.5264328447651053e-07   2.4081596222412891e-07   2.3870460777717170e-07   2.2168918066600577e-07   2.2028312671040563e-07   1.7496604033690176e-07   1.9844768551583266e-07   1.8285688334697017e-07   1.2806674580546404e-07   1.6621525901453363e-07   1.6642075733383813e-07   1.4848965956942722e-07   1.4901186585970260e-07   1.3016064463057805e-07   1.3140607263695607e-07   1.1193482729086366e-07   1.1415378676140863e-07   9.4621435505212352e-08   9.7923180706414480e-08   7.9034428063317442e-08   8.3411444989866605e-08   6.5924512589506880e-08   7.1274933575797794e-08   5.5931713178266275e-08   6.2079313162913440e-08   4.9551855791376592e-08   5.6264667789919194e-08   4.7113654890596781e-08   5.4121853072969237e-08   4.8764926547287538e-08   5.5778150626971974e-08   5.4467234134140627e-08   6.1191241003092950e-08   6.3998505375709465e-08   7.0150882008982360e-08   7.6963143708091527e-08   8.2287738202690926e-08   9.2809037152088190e-08   9.7088731426566143e-08   1.1085071154910565e-07   1.1391815656202469e-07   1.3029771599200901e-07   1.3204367180434155e-07   1.5028718638640829e-07   1.5066615025088356e-07   1.6991942141630345e-07   1.6895228289107274e-07   1.8829523312277960e-07   1.8606876162513306e-07   2.0455380905056862e-07   2.0121685207360622e-07   2.1790985162155162e-07   2.1366619666494294e-07   2.2768885468356307e-07   2.2278677845505464e-07   2.3335956337967688e-07   2.2807814364923371e-07   2.3456300231210564e-07   2.2919526349129810e-07   2.3113806782638222e-07   2.2597088337487736e-07   2.2314471417277010e-07   2.1843494619141269e-07   2.1088708741008504e-07   2.0683263780062374e-07   1.9493891324151524e-07   1.9164296223816471e-07   1.7616608001710886e-07   1.7359629989340743e-07   1.3912307673913726e-07   1.5367517239667023e-07   1.3657732917754157e-07   9.3295723637773740e-08   1.2057361793808991e-07   1.2186358838835558e-07   1.0495910885102160e-07   1.0662978061156888e-07   9.0162083592954741e-08   9.2478903706086687e-08   7.6703721351777286e-08   7.9809219943482826e-08   6.5131188122473509e-08   6.9053220218092290e-08   5.5955789883717776e-08   6.0625780744087738e-08   4.9606606079873178e-08   5.4879343973316022e-08   4.6398535274523562e-08   5.2071293754980763e-08   4.6511858996300284e-08   5.2342654808646588e-08   4.9981168307575077e-08   5.5706228321788852e-08   5.6692313133338497e-08   6.2042674110245365e-08   6.6386486094745902e-08   7.1103496986816185e-08   7.8670712926240577e-08   8.2520122950979672e-08   9.3034019606369566e-08   9.5818304331963193e-08   1.0886847191243699e-07   1.1043705529305427e-07   1.2549418737428926e-07   1.2575124834386261e-07   1.4218733033160020e-07   1.4109693162425240e-07   1.5821003345780595e-07   1.5579837339016985e-07   1.7284115279656744e-07   1.6919581409133076e-07   1.8540676381445183e-07   1.8067291345536912e-07   1.9530934763598760e-07   1.8968292406315444e-07   2.0205470487607271e-07   1.9577270793233979e-07   2.0527577907250833e-07   1.9860384451960740e-07   2.0475279104490984e-07   1.9797026748760450e-07   2.0042940693787616e-07   1.9381212819799112e-07   1.9242509960810120e-07   1.8622592389434850e-07   1.8104431437811989e-07   1.7547129886754501e-07   1.6678302254206974e-07   1.6197507753101039e-07   1.5033137340287129e-07   1.4633227944404762e-07   1.3256523623921450e-07   1.2930065275860070e-07   1.0450221085149066e-07   1.1177863750742747e-07   9.5104062692211672e-08   6.2840041498103034e-08   8.0875376457966139e-08   8.2992711408762223e-08   6.8216132585262109e-08   7.0669361447221705e-08   5.7448270782857621e-08   6.0400498632868599e-08   4.8904215699986226e-08   5.2416633830705200e-08   4.2888301239679156e-08   4.6928473659284829e-08   3.9639705630754411e-08   4.4097539241139074e-08   3.9304432875257664e-08   4.4010397637135217e-08   4.1917534246211086e-08   4.6660864937776447e-08   4.7394528781778393e-08   5.1940691422015702e-08   5.5530668767322961e-08   5.9637830295371135e-08   6.6006879412267546e-08   6.9441157364162116e-08   7.8401381537332854e-08   8.0950599428334274e-08   9.2206085972991249e-08   9.3691726283353367e-08   1.0684685226950484e-07   1.0713390050070633e-07   1.2170667259851747e-07   1.2071107681972536e-07   1.3615080486330669e-07   1.3384432701863291e-07   1.4955285584991775e-07   1.4596515738762068e-07   1.6132081637420358e-07   1.5653869673496634e-07   1.7092208148161555e-07   1.6508586962120798e-07   1.7790655278634581e-07   1.7120373515988607e-07   1.8192701887093791e-07   1.7458326738845652e-07   1.8275614547979699e-07   1.7502397943107447e-07   1.8029958321517656e-07   1.7244495093956959e-07   1.7460491868757440e-07   1.6689200615176242e-07   1.6586644561542752e-07   1.5854100162016933e-07   1.5442596067470687e-07   1.4769738926993398e-07   1.4076982593441237e-07   1.3479233433300073e-07   1.2552200784758582e-07   1.2037548346222175e-07   1.0943114720676991e-07   1.0510364068304380e-07   9.3346842950006085e-08   8.9722813557217261e-08   7.3206152527468509e-08   7.5038945398399088e-08   6.0262852865105263e-08   3.7936487682252941e-08   4.8595230789933616e-08   5.1271846902003766e-08   3.9372143210875701e-08   4.2264795003492237e-08   3.2779111009317175e-08   3.5977035131177279e-08   2.8962925278885090e-08   3.2469500916046331e-08   2.8009083064287421e-08   3.1751869678950502e-08   2.9921489185708752e-08   3.3767518490057278e-08   3.4608758969847561e-08   3.8381670200233897e-08   4.1878267050209217e-08   4.5375422251428016e-08   5.1437483337536400e-08   5.4446222650288834e-08   6.2901609715879306e-08   6.5214239277430777e-08   7.5806444696772194e-08   7.7233671440709297e-08   8.9625430047801796e-08   9.0007974549977360e-08   1.0378986145715528e-07   1.0300798636343743e-07   1.1771125710840183e-07   1.1569197389757610e-07   1.3080488475166483e-07   1.2752664834069893e-07   1.4251346363932690e-07   1.3800822769624182e-07   1.5233009270597735e-07   1.4668267274008412e-07   1.5981951626852565e-07   1.5316428758396036e-07   1.6463692559434696e-07   1.5715196456149129e-07   1.6654360905538608e-07   1.5844246450144861e-07   1.6541890404811076e-07   1.5694025613774860e-07   1.6126806806513513e-07   1.5266358950423150e-07   1.5422586947854224e-07   1.4574664301562116e-07   1.4455588898261873e-07   1.3643775414737751e-07   1.3264569081981166e-07   1.2509390200620246e-07   1.1899810301100839e-07   1.1217172109971972e-07   1.0421871642200742e-07   9.8215322855740591e-08   8.8999215779188785e-08   8.3840985310480868e-08   7.4095249249676268e-08   6.9718257934132321e-08   6.0296707363787532e-08   5.6546321914768612e-08   4.6723823256090388e-08   4.5024163126553872e-08   3.3170896955445124e-08   1.9290155158584068e-08   2.4548400748027142e-08   2.7512697387411955e-08   1.8935167989136628e-08   2.1948561845684182e-08   1.6370463288170885e-08   1.9470573191437680e-08   1.6828400119760597e-08   1.9981205329338581e-08   2.0205809802451116e-08   2.3317301739244931e-08   2.6313531177686184e-08   2.9244686955555438e-08   3.4873348731289438e-08   3.7456220321427409e-08   4.5521145161967957e-08   4.7574629405627421e-08   5.7815815100870835e-08   5.9160318535504536e-08   7.1253035923316236e-08   7.1723600591181185e-08   8.5282844569850733e-08   8.4740448357685073e-08   9.9329944041494475e-08   9.7670745537648634e-08   1.1281567758973538e-07   1.0997800999160685e-07   1.2518063786304909e-07   1.2114959806604342e-07   1.3590692098365473e-07   1.3071645555323819e-07   1.4453909624431350e-07   1.3827155340798433e-07   1.5070304468402106e-07   1.4348623608979571e-07   1.5412192571492400e-07   1.4612381861356046e-07   1.5462865944933111e-07   1.4604989467303790e-07   1.5217446078619716e-07   1.4323896027868966e-07   1.4683312538645884e-07   1.3777711129020840e-07   1.3880094098652002e-07   1.2986073344242549e-07   1.2839226986924236e-07   1.1979126217348933e-07   1.1603100230274990e-07   1.0796623537596463e-07   1.0223818673175037e-07   9.4866977811433563e-08   8.7616155446431655e-08   8.1043316012592377e-08   7.2829333746620461e-08   6.7095695541411813e-08   5.8581635458376519e-08   5.3654936054008944e-08   4.5590040514724246e-08   4.1359643071259250e-08   3.4554033037735159e-08   3.0831153153105234e-08   2.5991304551619945e-08   2.2646155670013847e-08   1.4306606851811411e-08   7.1271480945736563e-09   8.9484557565316322e-09   1.1935908986141786e-08   6.8621834559506127e-09   9.7072832815770746e-09   7.9462036918449927e-09   1.0653239417372242e-08   1.2024017642937233e-08   1.4539126202926018e-08   1.8839506473803903e-08   2.1063254254907901e-08   2.8056316352654913e-08   2.9858139141580382e-08   3.9262316089722103e-08   4.0495337031707803e-08   5.1979156407754728e-08   5.2494302633617944e-08   6.5676315393825523e-08   6.5335066851755312e-08   7.9788690112825359e-08   7.8474066488618850e-08   9.3736672597145352e-08   9.1362210296970375e-08   1.0694762912425780e-07   1.0346417692378045e-07   1.1887773042972513e-07   1.1427794481191608e-07   1.2903313583147118e-07   1.2335360884607761e-07   1.3698961068226873e-07   1.3031062225428314e-07   1.4240975386883065e-07   1.3485270656543016e-07   1.4505713025366781e-07   1.3677979407987810e-07   1.4480674060359570e-07   1.3599650419475969e-07   1.4165141554708773e-07   1.3251680417609751e-07   1.3570388568463928e-07   1.2646466246883303e-07   1.2719445067640365e-07   1.1807066291404886e-07   1.1646433732325887e-07   1.0766470442852456e-07   1.0395498863678491e-07   9.5665054307816022e-08   9.0193646800862061e-08   8.2564143975271181e-08   7.5775662968843665e-08   6.8911581636618598e-08   6.1343967300590138e-08   5.5294895005351411e-08   4.7566061747958270e-08   4.2318503203717611e-08   3.5108802785519505e-08   3.0581363038351443e-08   2.4611255431531711e-08   2.0653691856289808e-08   1.6656245842480230e-08   1.3053239045186129e-08   1.1446267159519830e-08   8.2218870036817473e-09   3.5846114711613573e-09   1.2529530844560680e-09   1.4798486608527116e-09   4.2434050864959667e-09   2.6296296768690655e-09   5.0528483932810670e-09   6.8078835864488697e-09   8.8772216287679721e-09   1.3716459414890915e-08   1.5373217919015565e-08   2.2985778125171161e-08   2.4138822682505898e-08   3.4179716324982125e-08   3.4718949444005918e-08   4.6804964724565261e-08   4.6614538611047916e-08   6.0324507104136154e-08   5.9294982255352829e-08   7.4174448426140036e-08   7.2213370229348099e-08   8.7783205091021355e-08   8.4823777247524062e-08   1.0059199783216456e-07   9.6599664576442055e-08   1.1207559839357471e-07   1.0705243160902227e-07   1.2176233747650702e-07   1.1574918682406447e-07   1.2925246583788061e-07   1.2232888683969848e-07   1.3423406619678850e-07   1.2651609980169168e-07   1.3649583820307485e-07   1.2813177630937781e-07   1.3593622005409233e-07   1.2710055238162946e-07   1.3256846530721315e-07   1.2345426061014987e-07   1.2652145752774614e-07   1.1733148336074841e-07   1.1803621271957547e-07   1.0897314058469394e-07   1.0745818270213926e-07   9.8714258500112779e-08   9.5225622963364664e-08   8.6972207292731678e-08   8.1854415895729701e-08   7.4231818680716454e-08   6.7919833975156691e-08   6.1027890303443710e-08   5.4035778752489787e-08   4.7925647392522120e-08   4.0832040385723807e-08   3.5499761133212647e-08   2.8930108416476905e-08   2.4312524301053133e-08   1.8918079639004143e-08   1.4891779382758454e-08   1.1325338777390567e-08   7.7092212206881965e-09   6.5980148385193770e-09   3.1598034712806143e-09   3.0850923651429602e-09   1.5431881589672708e-09   4.3802972753725095e-10   1.1170965427565065e-09   1.3812125562895427e-09   3.7002294466263132e-09   5.3160461397189640e-09   7.1043598323526724e-09   1.1915776952677041e-08   1.3155319060646573e-08   2.0793854398868500e-08   2.1433786187497906e-08   3.1508257566683603e-08   3.1477070360562153e-08   4.3569781333046538e-08   4.2787320558649364e-08   5.6454076675267260e-08   5.4842806906994093e-08   6.9616847573761412e-08   6.7111796024464932e-08   8.2511338855601452e-08   7.9068327990519268e-08   9.4607120605302086e-08   9.0209055247078874e-08   1.0540915294353992e-07   1.0007024278107566e-07   1.1447616077730363e-07   1.0824404262503761e-07   1.2143743375588290e-07   1.1439322310330479e-07   1.26007276