<?xml version="1.0"?>
<VTKFile type="UnstructuredGrid"  version="0.1"  >
<UnstructuredGrid>
<Piece  NumberOfPoints="25" NumberOfCells="32">
<Points>
<DataArray  type="Float64"  NumberOfComponents="3"  format="ascii">0 0 0  0.25 0 0  0.5 0 0  0.75 0 0  1 0 0  0 0.25 0  0.25 0.25 0  0.5 0.25 0  0.75 0.25 0  1 0.25 0  0 0.5 0  0.25 0.5 0  0.5 0.5 0  0.75 0.5 0  1 0.5 0  0 0.75 0  0.25 0.75 0  0.5 0.75 0  0.75 0.75 0  1 0.75 0  0 1 0  0.25 1 0  0.5 1 0  0.75 1 0  1 1 0  </DataArray>
</Points>
<Cells>
<DataArray  type="UInt32"  Name="connectivity"  format="ascii">0 1 6  0 5 6  1 2 7  1 6 7  2 3 8  2 7 8  3 4 9  3 8 9  5 6 11  5 10 11  6 7 12  6 11 12  7 8 13  7 12 13  8 9 14  8 13 14  10 11 16  10 15 16  11 12 17  11 16 17  12 13 18  12 17 18  13 14 19  13 18 19  15 16 21  15 20 21  16 17 22  16 21 22  17 18 23  17 22 23  18 19 24  18 23 24  </DataArray>
<DataArray  type="UInt32"  Name="offsets"  format="ascii">3 6 9 12 15 18 21 24 27 30 33 36 39 42 45 48 51 54 57 60 63 66 69 72 75 78 81 84 87 90 93 96 </DataArray>
<DataArray  type="UInt8"  Name="types"  format="ascii">5 5 5 5 5 5 5 5 5 5 5 5 5 5 5 5 5 5 5 5 5 5 5 5 5 5 5 5 5 5 5 5 </DataArray>
</Cells>
<CellData  Scalars="f_34478"> 
<DataArray  type="Float64"  Name="f_34478"  format="ascii">2.2340971842471907e-01   2.1567850658123619e-01   1.6116213260819579e-01   2.8749604715956606e-01   4.6451638580089924e-02   1.8527600512664555e-01   6.6321967567600851e-02   1.1882158839225640e-01   6.6754790651621643e-01   5.3670678324038512e-01   2.2233913336393082e-01   2.2804604518895341e-01   1.0635991533677694e-01   1.1666724673635102e-01   4.0503622783847121e-01   5.3261957578634589e-01   5.7516793302114610e-01   4.4022067164854550e-01   1.2065805089456365e-01   1.1105825740841127e-01   2.1383792170396754e-01   2.0823673089112327e-01   5.5284206548408332e-01   6.9179778499097355e-01   1.4765424004834823e-01   9.4443983830594047e-02   1.7364129105841589e-01   4.2382184742720916e-02   2.9130453493155312e-01   1.5626807125306441e-01   2.5487649496856801e-01   2.6281544651659705e-01   </DataArray> 
</CellData> 
</Piece>
</UnstructuredGrid>
</VTKFile>