<?xml version="1.0"?>
<VTKFile type="UnstructuredGrid"  version="0.1"  >
<UnstructuredGrid>
<Piece  NumberOfPoints="25" NumberOfCells="32">
<Points>
<DataArray  type="Float64"  NumberOfComponents="3"  format="ascii">0 0 0  0.25 0 0  0.5 0 0  0.75 0 0  1 0 0  0 0.25 0  0.25 0.25 0  0.5 0.25 0  0.75 0.25 0  1 0.25 0  0 0.5 0  0.25 0.5 0  0.5 0.5 0  0.75 0.5 0  1 0.5 0  0 0.75 0  0.25 0.75 0  0.5 0.75 0  0.75 0.75 0  1 0.75 0  0 1 0  0.25 1 0  0.5 1 0  0.75 1 0  1 1 0  </DataArray>
</Points>
<Cells>
<DataArray  type="UInt32"  Name="connectivity"  format="ascii">0 1 6  0 5 6  1 2 7  1 6 7  2 3 8  2 7 8  3 4 9  3 8 9  5 6 11  5 10 11  6 7 12  6 11 12  7 8 13  7 12 13  8 9 14  8 13 14  10 11 16  10 15 16  11 12 17  11 16 17  12 13 18  12 17 18  13 14 19  13 18 19  15 16 21  15 20 21  16 17 22  16 21 22  17 18 23  17 22 23  18 19 24  18 23 24  </DataArray>
<DataArray  type="UInt32"  Name="offsets"  format="ascii">3 6 9 12 15 18 21 24 27 30 33 36 39 42 45 48 51 54 57 60 63 66 69 72 75 78 81 84 87 90 93 96 </DataArray>
<DataArray  type="UInt8"  Name="types"  format="ascii">5 5 5 5 5 5 5 5 5 5 5 5 5 5 5 5 5 5 5 5 5 5 5 5 5 5 5 5 5 5 5 5 </DataArray>
</Cells>
<CellData  Scalars="f_64860"> 
<DataArray  type="Float64"  Name="f_64860"  format="ascii">9.6954048532459895e-06   6.4304756295344338e-06   2.3352001908002506e-06   1.1935878046900347e-06   2.1450034016656533e-06   2.0431808824008398e-06   9.4122701069323811e-06   6.0050281357824587e-06   1.1733727726451290e-05   5.4269970801631405e-08   1.3055486345079492e-05   5.3551981494924869e-06   7.8642577868447623e-06   1.2194674141728444e-05   5.4749149790286705e-06   6.5888062171564134e-06   6.5441327082600986e-06   5.3571960439540940e-06   1.2161357791006262e-05   7.8360517848827267e-06   5.3645352891648763e-06   1.3015049929377175e-05   4.7419366824128647e-08   1.1681257892847111e-05   5.9247783505774359e-06   9.4122701069324031e-06   2.0925295924681344e-06   2.1824725515352261e-06   1.2024201267251772e-06   2.3612307899557421e-06   6.3663634587076350e-06   9.7090520427110116e-06   </DataArray> 
</CellData> 
</Piece>
</UnstructuredGrid>
</VTKFile>