<?xml version="1.0"?>
<VTKFile type="UnstructuredGrid"  version="0.1"  >
<UnstructuredGrid>
<Piece  NumberOfPoints="25" NumberOfCells="32">
<Points>
<DataArray  type="Float64"  NumberOfComponents="3"  format="ascii">0 0 0  0.25 0 0  0.5 0 0  0.75 0 0  1 0 0  0 0.25 0  0.25 0.25 0  0.5 0.25 0  0.75 0.25 0  1 0.25 0  0 0.5 0  0.25 0.5 0  0.5 0.5 0  0.75 0.5 0  1 0.5 0  0 0.75 0  0.25 0.75 0  0.5 0.75 0  0.75 0.75 0  1 0.75 0  0 1 0  0.25 1 0  0.5 1 0  0.75 1 0  1 1 0  </DataArray>
</Points>
<Cells>
<DataArray  type="UInt32"  Name="connectivity"  format="ascii">0 1 6  0 5 6  1 2 7  1 6 7  2 3 8  2 7 8  3 4 9  3 8 9  5 6 11  5 10 11  6 7 12  6 11 12  7 8 13  7 12 13  8 9 14  8 13 14  10 11 16  10 15 16  11 12 17  11 16 17  12 13 18  12 17 18  13 14 19  13 18 19  15 16 21  15 20 21  16 17 22  16 21 22  17 18 23  17 22 23  18 19 24  18 23 24  </DataArray>
<DataArray  type="UInt32"  Name="offsets"  format="ascii">3 6 9 12 15 18 21 24 27 30 33 36 39 42 45 48 51 54 57 60 63 66 69 72 75 78 81 84 87 90 93 96 </DataArray>
<DataArray  type="UInt8"  Name="types"  format="ascii">5 5 5 5 5 5 5 5 5 5 5 5 5 5 5 5 5 5 5 5 5 5 5 5 5 5 5 5 5 5 5 5 </DataArray>
</Cells>
<CellData  Scalars="f_87360"> 
<DataArray  type="Float64"  Name="f_87360"  format="ascii">4.3767997644680927e-04   4.8290308476423217e-04   6.2335114907862487e-05   5.9980254941644981e-04   1.8574567138080459e-04   7.0584721584999815e-04   4.1714790868806453e-05   7.1210844764723794e-05   5.1716471644891091e-04   2.3271488629275446e-04   7.0095307644226878e-04   4.4517964344996787e-04   6.8281862392191898e-04   6.5341714284152615e-05   3.0699692063103123e-04   5.9438261048010480e-04   5.7497797003953108e-04   3.1127073492511501e-04   6.4345824061308660e-05   6.9263074704127223e-04   4.6407242798445099e-04   7.2402146602964699e-04   2.2555096360042952e-04   5.1999736954273150e-04   9.7303552749539892e-05   5.6999646128533131e-05   7.3570223517075415e-04   1.9201624262565331e-04   6.1595355383900659e-04   6.1832594001954286e-05   5.1376473383296748e-04   4.7092961333842804e-04   </DataArray> 
</CellData> 
</Piece>
</UnstructuredGrid>
</VTKFile>