<?xml version="1.0"?>
<VTKFile type="UnstructuredGrid"  version="0.1"  >
<UnstructuredGrid>
<Piece  NumberOfPoints="81" NumberOfCells="128">
<Points>
<DataArray  type="Float64"  NumberOfComponents="3"  format="ascii">0 0 0  0.125 0 0  0.25 0 0  0.375 0 0  0.5 0 0  0.625 0 0  0.75 0 0  0.875 0 0  1 0 0  0 0.125 0  0.125 0.125 0  0.25 0.125 0  0.375 0.125 0  0.5 0.125 0  0.625 0.125 0  0.75 0.125 0  0.875 0.125 0  1 0.125 0  0 0.25 0  0.125 0.25 0  0.25 0.25 0  0.375 0.25 0  0.5 0.25 0  0.625 0.25 0  0.75 0.25 0  0.875 0.25 0  1 0.25 0  0 0.375 0  0.125 0.375 0  0.25 0.375 0  0.375 0.375 0  0.5 0.375 0  0.625 0.375 0  0.75 0.375 0  0.875 0.375 0  1 0.375 0  0 0.5 0  0.125 0.5 0  0.25 0.5 0  0.375 0.5 0  0.5 0.5 0  0.625 0.5 0  0.75 0.5 0  0.875 0.5 0  1 0.5 0  0 0.625 0  0.125 0.625 0  0.25 0.625 0  0.375 0.625 0  0.5 0.625 0  0.625 0.625 0  0.75 0.625 0  0.875 0.625 0  1 0.625 0  0 0.75 0  0.125 0.75 0  0.25 0.75 0  0.375 0.75 0  0.5 0.75 0  0.625 0.75 0  0.75 0.75 0  0.875 0.75 0  1 0.75 0  0 0.875 0  0.125 0.875 0  0.25 0.875 0  0.375 0.875 0  0.5 0.875 0  0.625 0.875 0  0.75 0.875 0  0.875 0.875 0  1 0.875 0  0 1 0  0.125 1 0  0.25 1 0  0.375 1 0  0.5 1 0  0.625 1 0  0.75 1 0  0.875 1 0  1 1 0  </DataArray>
</Points>
<Cells>
<DataArray  type="UInt32"  Name="connectivity"  format="ascii">0 1 10  0 9 10  1 2 11  1 10 11  2 3 12  2 11 12  3 4 13  3 12 13  4 5 14  4 13 14  5 6 15  5 14 15  6 7 16  6 15 16  7 8 17  7 16 17  9 10 19  9 18 19  10 11 20  10 19 20  11 12 21  11 20 21  12 13 22  12 21 22  13 14 23  13 22 23  14 15 24  14 23 24  15 16 25  15 24 25  16 17 26  16 25 26  18 19 28  18 27 28  19 20 29  19 28 29  20 21 30  20 29 30  21 22 31  21 30 31  22 23 32  22 31 32  23 24 33  23 32 33  24 25 34  24 33 34  25 26 35  25 34 35  27 28 37  27 36 37  28 29 38  28 37 38  29 30 39  29 38 39  30 31 40  30 39 40  31 32 41  31 40 41  32 33 42  32 41 42  33 34 43  33 42 43  34 35 44  34 43 44  36 37 46  36 45 46  37 38 47  37 46 47  38 39 48  38 47 48  39 40 49  39 48 49  40 41 50  40 49 50  41 42 51  41 50 51  42 43 52  42 51 52  43 44 53  43 52 53  45 46 55  45 54 55  46 47 56  46 55 56  47 48 57  47 56 57  48 49 58  48 57 58  49 50 59  49 58 59  50 51 60  50 59 60  51 52 61  51 60 61  52 53 62  52 61 62  54 55 64  54 63 64  55 56 65  55 64 65  56 57 66  56 65 66  57 58 67  57 66 67  58 59 68  58 67 68  59 60 69  59 68 69  60 61 70  60 69 70  61 62 71  61 70 71  63 64 73  63 72 73  64 65 74  64 73 74  65 66 75  65 74 75  66 67 76  66 75 76  67 68 77  67 76 77  68 69 78  68 77 78  69 70 79  69 78 79  70 71 80  70 79 80  </DataArray>
<DataArray  type="UInt32"  Name="offsets"  format="ascii">3 6 9 12 15 18 21 24 27 30 33 36 39 42 45 48 51 54 57 60 63 66 69 72 75 78 81 84 87 90 93 96 99 102 105 108 111 114 117 120 123 126 129 132 135 138 141 144 147 150 153 156 159 162 165 168 171 174 177 180 183 186 189 192 195 198 201 204 207 210 213 216 219 222 225 228 231 234 237 240 243 246 249 252 255 258 261 264 267 270 273 276 279 282 285 288 291 294 297 300 303 306 309 312 315 318 321 324 327 330 333 336 339 342 345 348 351 354 357 360 363 366 369 372 375 378 381 384 </DataArray>
<DataArray  type="UInt8"  Name="types"  format="ascii">5 5 5 5 5 5 5 5 5 5 5 5 5 5 5 5 5 5 5 5 5 5 5 5 5 5 5 5 5 5 5 5 5 5 5 5 5 5 5 5 5 5 5 5 5 5 5 5 5 5 5 5 5 5 5 5 5 5 5 5 5 5 5 5 5 5 5 5 5 5 5 5 5 5 5 5 5 5 5 5 5 5 5 5 5 5 5 5 5 5 5 5 5 5 5 5 5 5 5 5 5 5 5 5 5 5 5 5 5 5 5 5 5 5 5 5 5 5 5 5 5 5 5 5 5 5 5 5 </DataArray>
</Cells>
<CellData  Scalars="f_109965"> 
<DataArray  type="Float64"  Name="f_109965"  format="ascii">2.7758256745835196e-06   2.3176679876681797e-06   2.0442952105891388e-06   1.6948950238813701e-06   9.8932251143934691e-07   8.1620278193466512e-07   2.2883859008113633e-07   1.9951965157847544e-07   2.0881028169880521e-07   2.0976662762378905e-07   9.4142507850914369e-07   8.4475541180920740e-07   1.9974047926199647e-06   1.7366802700478976e-06   2.7567900879608464e-06   2.3675014984567709e-06   2.4514171798681331e-06   1.3378890551432643e-06   2.1279849808915707e-06   1.1096253649340004e-06   1.5186099260626414e-06   8.9487830858116538e-07   9.8468011804978071e-07   8.2271011775580341e-07   8.4379498326301166e-07   9.4047509138246618e-07   1.1828822424454867e-06   1.1849744411394562e-06   1.8067870508755634e-06   1.4193153034060780e-06   2.3513891499412234e-06   1.5125498329536215e-06   1.6291390939280280e-06   3.8068366548824689e-07   1.9658222431595867e-06   5.7489147285583402e-07   2.1263616671297075e-06   1.1215825916482701e-06   2.0230044565855429e-06   1.7018010908982216e-06   1.7226263754195789e-06   1.9791401883369373e-06   1.4069488039345636e-06   1.7955232690524286e-06   1.2659513065519915e-06   1.2633384764476862e-06   1.3855911321910920e-06   6.9888357789170009e-07   7.8098131157305748e-07   2.4633682712575504e-10   1.6485578156787052e-06   4.0030680022782899e-07   2.4591208668550204e-06   1.3649466793155755e-06   2.7422315057606521e-06   2.3275847766539105e-06   2.3361542176619063e-06   2.7241496976533361e-06   1.4825258906073932e-06   2.3227656952057729e-06   6.8508343467049038e-07   1.3590646344523663e-06   4.1438597712856273e-07   3.9768614623949529e-07   3.9751446935561464e-07   4.1729949109280174e-07   1.3582562650666050e-06   6.8689731175450299e-07   2.3213699980794772e-06   1.4826101270954725e-06   2.7225400547009829e-06   2.3348807091463932e-06   2.3262419073334222e-06   2.7407516285012372e-06   1.3641794631333009e-06   2.4586940662968111e-06   4.0007185327710218e-07   1.6498173051453115e-06   1.7539421909092244e-10   7.8356375901997996e-07   7.0122751218083901e-07   1.3896547594830486e-06   1.2634548051732611e-06   1.2682879409805947e-06   1.7931165661890524e-06   1.4062999688513311e-06   1.9753729942409705e-06   1.7194764838616582e-06   1.6986166259201706e-06   2.0192930323876883e-06   1.1205731519309079e-06   2.1243533368619497e-06   5.7636860771673540e-07   1.9667883767066810e-06   3.8349281526680733e-07   1.6326168827931611e-06   1.5160481069899289e-06   2.3542440672043282e-06   1.4202839415664368e-06   1.8082810869291114e-06   1.1829458629669977e-06   1.1818671343496675e-06   9.3672800635617038e-07   8.4059057355684311e-07   8.1952323170062906e-07   9.8088572532365044e-07   8.9420287278819178e-07   1.5161742324072248e-06   1.1119459289605854e-06   2.1280731605363875e-06   1.3419335335268149e-06   2.4537350026374859e-06   2.3701210278917780e-06   2.7567900879608523e-06   1.7379201061847605e-06   1.9971694047918785e-06   8.4425613887981835e-07   9.4060552533682442e-07   2.0819138584543336e-07   2.0738854092189722e-07   1.9816431531232493e-07   2.2714784706936402e-07   8.1624085638248227e-07   9.8785682107463108e-07   1.6966928640462359e-06   2.0434212528587286e-06   2.3205668380255580e-06   2.7755639484952308e-06   </DataArray> 
</CellData> 
</Piece>
</UnstructuredGrid>
</VTKFile>