<?xml version="1.0"?>
<VTKFile type="UnstructuredGrid"  version="0.1"  >
<UnstructuredGrid>
<Piece  NumberOfPoints="81" NumberOfCells="128">
<Points>
<DataArray  type="Float64"  NumberOfComponents="3"  format="ascii">0 0 0  0.125 0 0  0.25 0 0  0.375 0 0  0.5 0 0  0.625 0 0  0.75 0 0  0.875 0 0  1 0 0  0 0.125 0  0.125 0.125 0  0.25 0.125 0  0.375 0.125 0  0.5 0.125 0  0.625 0.125 0  0.75 0.125 0  0.875 0.125 0  1 0.125 0  0 0.25 0  0.125 0.25 0  0.25 0.25 0  0.375 0.25 0  0.5 0.25 0  0.625 0.25 0  0.75 0.25 0  0.875 0.25 0  1 0.25 0  0 0.375 0  0.125 0.375 0  0.25 0.375 0  0.375 0.375 0  0.5 0.375 0  0.625 0.375 0  0.75 0.375 0  0.875 0.375 0  1 0.375 0  0 0.5 0  0.125 0.5 0  0.25 0.5 0  0.375 0.5 0  0.5 0.5 0  0.625 0.5 0  0.75 0.5 0  0.875 0.5 0  1 0.5 0  0 0.625 0  0.125 0.625 0  0.25 0.625 0  0.375 0.625 0  0.5 0.625 0  0.625 0.625 0  0.75 0.625 0  0.875 0.625 0  1 0.625 0  0 0.75 0  0.125 0.75 0  0.25 0.75 0  0.375 0.75 0  0.5 0.75 0  0.625 0.75 0  0.75 0.75 0  0.875 0.75 0  1 0.75 0  0 0.875 0  0.125 0.875 0  0.25 0.875 0  0.375 0.875 0  0.5 0.875 0  0.625 0.875 0  0.75 0.875 0  0.875 0.875 0  1 0.875 0  0 1 0  0.125 1 0  0.25 1 0  0.375 1 0  0.5 1 0  0.625 1 0  0.75 1 0  0.875 1 0  1 1 0  </DataArray>
</Points>
<Cells>
<DataArray  type="UInt32"  Name="connectivity"  format="ascii">0 1 10  0 9 10  1 2 11  1 10 11  2 3 12  2 11 12  3 4 13  3 12 13  4 5 14  4 13 14  5 6 15  5 14 15  6 7 16  6 15 16  7 8 17  7 16 17  9 10 19  9 18 19  10 11 20  10 19 20  11 12 21  11 20 21  12 13 22  12 21 22  13 14 23  13 22 23  14 15 24  14 23 24  15 16 25  15 24 25  16 17 26  16 25 26  18 19 28  18 27 28  19 20 29  19 28 29  20 21 30  20 29 30  21 22 31  21 30 31  22 23 32  22 31 32  23 24 33  23 32 33  24 25 34  24 33 34  25 26 35  25 34 35  27 28 37  27 36 37  28 29 38  28 37 38  29 30 39  29 38 39  30 31 40  30 39 40  31 32 41  31 40 41  32 33 42  32 41 42  33 34 43  33 42 43  34 35 44  34 43 44  36 37 46  36 45 46  37 38 47  37 46 47  38 39 48  38 47 48  39 40 49  39 48 49  40 41 50  40 49 50  41 42 51  41 50 51  42 43 52  42 51 52  43 44 53  43 52 53  45 46 55  45 54 55  46 47 56  46 55 56  47 48 57  47 56 57  48 49 58  48 57 58  49 50 59  49 58 59  50 51 60  50 59 60  51 52 61  51 60 61  52 53 62  52 61 62  54 55 64  54 63 64  55 56 65  55 64 65  56 57 66  56 65 66  57 58 67  57 66 67  58 59 68  58 67 68  59 60 69  59 68 69  60 61 70  60 69 70  61 62 71  61 70 71  63 64 73  63 72 73  64 65 74  64 73 74  65 66 75  65 74 75  66 67 76  66 75 76  67 68 77  67 76 77  68 69 78  68 77 78  69 70 79  69 78 79  70 71 80  70 79 80  </DataArray>
<DataArray  type="UInt32"  Name="offsets"  format="ascii">3 6 9 12 15 18 21 24 27 30 33 36 39 42 45 48 51 54 57 60 63 66 69 72 75 78 81 84 87 90 93 96 99 102 105 108 111 114 117 120 123 126 129 132 135 138 141 144 147 150 153 156 159 162 165 168 171 174 177 180 183 186 189 192 195 198 201 204 207 210 213 216 219 222 225 228 231 234 237 240 243 246 249 252 255 258 261 264 267 270 273 276 279 282 285 288 291 294 297 300 303 306 309 312 315 318 321 324 327 330 333 336 339 342 345 348 351 354 357 360 363 366 369 372 375 378 381 384 </DataArray>
<DataArray  type="UInt8"  Name="types"  format="ascii">5 5 5 5 5 5 5 5 5 5 5 5 5 5 5 5 5 5 5 5 5 5 5 5 5 5 5 5 5 5 5 5 5 5 5 5 5 5 5 5 5 5 5 5 5 5 5 5 5 5 5 5 5 5 5 5 5 5 5 5 5 5 5 5 5 5 5 5 5 5 5 5 5 5 5 5 5 5 5 5 5 5 5 5 5 5 5 5 5 5 5 5 5 5 5 5 5 5 5 5 5 5 5 5 5 5 5 5 5 5 5 5 5 5 5 5 5 5 5 5 5 5 5 5 5 5 5 5 </DataArray>
</Cells>
<CellData  Scalars="f_34863"> 
<DataArray  type="Float64"  Name="f_34863"  format="ascii">1.0782649727357079e-02   9.1871876940693847e-03   7.9100593943953433e-03   6.6584124085895318e-03   3.7886646402861077e-03   3.1478785439353505e-03   8.3247427366417632e-04   7.1060172178981774e-04   7.7293540864575459e-04   7.7172790119101943e-04   3.6450321961744138e-03   3.2946638968834015e-03   7.7666006621585574e-03   6.8026921727029734e-03   1.0723304703363121e-02   9.2412182471187168e-03   9.6664344724574983e-03   5.4698024395864551e-03   8.2385479416915239e-03   4.4024964961896212e-03   5.7468200498210307e-03   3.3882960579839153e-03   3.6482578129984830e-03   3.0171823104926934e-03   3.1691363115265475e-03   3.5020571151090944e-03   4.5897058526651133e-03   4.5571712110954038e-03   7.0797476130493812e-03   5.5658047237848278e-03   9.1814076947280138e-03   5.9397343661031290e-03   6.5552677471465565e-03   1.6819605385340088e-03   7.6348551649234424e-03   2.2867326490435226e-03   8.0902667012075456e-03   4.2456109468056724e-03   7.6478525852747749e-03   6.4067534090558494e-03   6.5620021400612724e-03   7.4994550775239859e-03   5.4681419103758556e-03   6.8817172650502741e-03   5.0099539110749821e-03   4.9168873988078531e-03   5.4584409899914033e-03   2.7605537243002324e-03   3.2102987993789900e-03   3.6777464493143058e-06   6.4251836979427237e-03   1.5305186247101697e-03   9.4567034756449786e-03   5.2247723341616314e-03   1.0521300078069383e-02   8.9227800227594592e-03   8.9912090095232121e-03   1.0456138496150194e-02   5.7625799921108990e-03   8.9255955630765556e-03   2.7298313682398226e-03   5.2284693350139969e-03   1.6727068393964715e-03   1.5327206769235459e-03   1.5534245535362263e-03   1.4024334833751062e-03   5.2967857976885689e-03   2.5686721639622350e-03   9.0413685307676756e-03   5.7522393518082580e-03   1.0591788061933248e-02   9.0974843481971095e-03   9.0393030322059413e-03   1.0647454670199626e-02   5.2939897572041291e-03   9.4946099803008780e-03   1.5512056091642372e-03   6.3127950054721275e-03   3.2029910253029371e-06   2.9604658977978354e-03   2.5403847920507949e-03   5.0669643120638160e-03   4.9035709076413478e-03   4.7998956374701897e-03   7.0873500701229657e-03   5.5239661311213897e-03   7.8220063304765396e-03   6.8326171100972378e-03   6.6818015350631078e-03   7.9662591167067500e-03   4.3356853262559022e-03   8.2622742982275833e-03   2.1557203897958712e-03   7.5430777906619669e-03   1.4113954005491695e-03   6.2157192601327831e-03   5.6010493544522578e-03   8.8911495653208380e-03   5.4814162559829304e-03   6.9435268484648750e-03   4.7410170784245084e-03   4.6845187497886725e-03   3.8338455557934072e-03   3.4554664794419244e-03   3.2994208869345492e-03   3.9836796223580951e-03   3.4514030287327102e-03   5.9611663828625684e-03   4.1949319108235137e-03   8.2246624022838180e-03   5.0797646843870337e-03   9.4320490935713118e-03   8.9769063913067767e-03   1.0723304703363140e-02   6.6980962722137469e-03   7.7925469357538399e-03   3.3544290814522242e-03   3.7294487265464634e-03   9.2551842657585945e-04   9.1366192566586196e-04   8.4089988279920916e-04   9.9602811201693949e-04   3.1500318890625187e-03   3.9289591186844643e-03   6.4943750127043447e-03   7.9938519215403767e-03   8.8999572220658935e-03   1.0808198924287280e-02   </DataArray> 
</CellData> 
</Piece>
</UnstructuredGrid>
</VTKFile>