<?xml version="1.0"?>
<VTKFile type="UnstructuredGrid"  version="0.1"  >
<UnstructuredGrid>
<Piece  NumberOfPoints="25" NumberOfCells="32">
<Points>
<DataArray  type="Float64"  NumberOfComponents="3"  format="ascii">0 0 0  0.25 0 0  0.5 0 0  0.75 0 0  1 0 0  0 0.25 0  0.25 0.25 0  0.5 0.25 0  0.75 0.25 0  1 0.25 0  0 0.5 0  0.25 0.5 0  0.5 0.5 0  0.75 0.5 0  1 0.5 0  0 0.75 0  0.25 0.75 0  0.5 0.75 0  0.75 0.75 0  1 0.75 0  0 1 0  0.25 1 0  0.5 1 0  0.75 1 0  1 1 0  </DataArray>
</Points>
<Cells>
<DataArray  type="UInt32"  Name="connectivity"  format="ascii">0 1 6  0 5 6  1 2 7  1 6 7  2 3 8  2 7 8  3 4 9  3 8 9  5 6 11  5 10 11  6 7 12  6 11 12  7 8 13  7 12 13  8 9 14  8 13 14  10 11 16  10 15 16  11 12 17  11 16 17  12 13 18  12 17 18  13 14 19  13 18 19  15 16 21  15 20 21  16 17 22  16 21 22  17 18 23  17 22 23  18 19 24  18 23 24  </DataArray>
<DataArray  type="UInt32"  Name="offsets"  format="ascii">3 6 9 12 15 18 21 24 27 30 33 36 39 42 45 48 51 54 57 60 63 66 69 72 75 78 81 84 87 90 93 96 </DataArray>
<DataArray  type="UInt8"  Name="types"  format="ascii">5 5 5 5 5 5 5 5 5 5 5 5 5 5 5 5 5 5 5 5 5 5 5 5 5 5 5 5 5 5 5 5 </DataArray>
</Cells>
<CellData  Scalars="f_34434"> 
<DataArray  type="Float64"  Name="f_34434"  format="ascii">3.7033898462189851e-02   3.7212220657699614e-02   2.8890321815330564e-02   5.4193455656295964e-02   7.6641456856810907e-03   3.3826514621143042e-02   1.1224361773570385e-02   2.0246792250370609e-02   1.2435217871703108e-01   9.8826717199567204e-02   4.4036707421790389e-02   4.3505771737302287e-02   2.1615815291064558e-02   2.1532442049044583e-02   7.6350274868152615e-02   1.0193778871203533e-01   1.0547900227925865e-01   7.9179894877161497e-02   2.1887316352121874e-02   2.1943761528154651e-02   4.2115863850760021e-02   4.2636136884567730e-02   1.0028235735267588e-01   1.2635069214819195e-01   2.2563656945256708e-02   1.3566051013959836e-02   3.2613413957328315e-02   7.1426365071050020e-03   5.4351881327088375e-02   2.8507655593168663e-02   4.0267797198200936e-02   4.0092067074193799e-02   </DataArray> 
</CellData> 
</Piece>
</UnstructuredGrid>
</VTKFile>