<?xml version="1.0"?>
<VTKFile type="UnstructuredGrid"  version="0.1"  >
<UnstructuredGrid>
<Piece  NumberOfPoints="25" NumberOfCells="32">
<Points>
<DataArray  type="Float64"  NumberOfComponents="3"  format="ascii">0 0 0  0.25 0 0  0.5 0 0  0.75 0 0  1 0 0  0 0.25 0  0.25 0.25 0  0.5 0.25 0  0.75 0.25 0  1 0.25 0  0 0.5 0  0.25 0.5 0  0.5 0.5 0  0.75 0.5 0  1 0.5 0  0 0.75 0  0.25 0.75 0  0.5 0.75 0  0.75 0.75 0  1 0.75 0  0 1 0  0.25 1 0  0.5 1 0  0.75 1 0  1 1 0  </DataArray>
</Points>
<Cells>
<DataArray  type="UInt32"  Name="connectivity"  format="ascii">0 1 6  0 5 6  1 2 7  1 6 7  2 3 8  2 7 8  3 4 9  3 8 9  5 6 11  5 10 11  6 7 12  6 11 12  7 8 13  7 12 13  8 9 14  8 13 14  10 11 16  10 15 16  11 12 17  11 16 17  12 13 18  12 17 18  13 14 19  13 18 19  15 16 21  15 20 21  16 17 22  16 21 22  17 18 23  17 22 23  18 19 24  18 23 24  </DataArray>
<DataArray  type="UInt32"  Name="offsets"  format="ascii">3 6 9 12 15 18 21 24 27 30 33 36 39 42 45 48 51 54 57 60 63 66 69 72 75 78 81 84 87 90 93 96 </DataArray>
<DataArray  type="UInt8"  Name="types"  format="ascii">5 5 5 5 5 5 5 5 5 5 5 5 5 5 5 5 5 5 5 5 5 5 5 5 5 5 5 5 5 5 5 5 </DataArray>
</Cells>
<CellData  Scalars="f_42045"> 
<DataArray  type="Float64"  Name="f_42045"  format="ascii">3.0272550884627138e-04   4.1631851506741639e-04   6.8391508646008670e-04   4.3301250739713991e-04   4.6785627227128354e-04   5.8260475209939136e-04   7.9262520091306937e-05   5.7046430894344225e-04   5.4499164237373470e-04   7.7694015822166531e-04   1.4366951005792206e-04   2.0638294474418725e-04   2.4424967081673732e-04   7.6855962519258993e-05   6.4246583929891893e-04   6.4273416507855429e-04   6.9525183244371045e-04   3.8076958701838452e-04   2.1143598981601149e-04   3.2908030228539115e-04   2.7616042785715472e-04   3.5833915410496615e-04   7.6394906486512194e-04   4.0530325021430824e-04   4.5538930956905745e-04   1.5506804272253069e-05   7.4744508508991928e-04   5.4848553756423556e-04   4.9011674412007781e-04   8.6896619108495536e-04   2.0047771201391412e-04   3.3921792245102963e-04   </DataArray> 
</CellData> 
</Piece>
</UnstructuredGrid>
</VTKFile>