<?xml version="1.0"?>
<VTKFile type="UnstructuredGrid"  version="0.1"  >
<UnstructuredGrid>
<Piece  NumberOfPoints="25" NumberOfCells="32">
<Points>
<DataArray  type="Float64"  NumberOfComponents="3"  format="ascii">0 0 0  0.25 0 0  0.5 0 0  0.75 0 0  1 0 0  0 0.25 0  0.25 0.25 0  0.5 0.25 0  0.75 0.25 0  1 0.25 0  0 0.5 0  0.25 0.5 0  0.5 0.5 0  0.75 0.5 0  1 0.5 0  0 0.75 0  0.25 0.75 0  0.5 0.75 0  0.75 0.75 0  1 0.75 0  0 1 0  0.25 1 0  0.5 1 0  0.75 1 0  1 1 0  </DataArray>
</Points>
<Cells>
<DataArray  type="UInt32"  Name="connectivity"  format="ascii">0 1 6  0 5 6  1 2 7  1 6 7  2 3 8  2 7 8  3 4 9  3 8 9  5 6 11  5 10 11  6 7 12  6 11 12  7 8 13  7 12 13  8 9 14  8 13 14  10 11 16  10 15 16  11 12 17  11 16 17  12 13 18  12 17 18  13 14 19  13 18 19  15 16 21  15 20 21  16 17 22  16 21 22  17 18 23  17 22 23  18 19 24  18 23 24  </DataArray>
<DataArray  type="UInt32"  Name="offsets"  format="ascii">3 6 9 12 15 18 21 24 27 30 33 36 39 42 45 48 51 54 57 60 63 66 69 72 75 78 81 84 87 90 93 96 </DataArray>
<DataArray  type="UInt8"  Name="types"  format="ascii">5 5 5 5 5 5 5 5 5 5 5 5 5 5 5 5 5 5 5 5 5 5 5 5 5 5 5 5 5 5 5 5 </DataArray>
</Cells>
<CellData  Scalars="f_34431"> 
<DataArray  type="Float64"  Name="f_34431"  format="ascii">1.1324171024995933e-02   1.0239763302919222e-02   1.9985717776191000e-03   5.1685616830766078e-03   1.0216398750462026e-02   9.1301170733041198e-03   1.9821933724167625e-02   1.5135693770714642e-02   4.0460692537459871e-03   1.0881028033822254e-03   1.1504307193407195e-02   1.0847080740345400e-02   1.3212739480540624e-02   1.4929173985056825e-02   5.4417645654188202e-03   5.5578137481082620e-03   9.1403847047058992e-03   1.2559205128015496e-02   1.4093721299505209e-02   1.3007658402022971e-02   8.9314673632084046e-03   8.0318230029261303e-03   3.7694454298393115e-03   8.0007973454335538e-03   1.7614370407502584e-02   2.1860224642578734e-02   5.0042244155077287e-03   7.2084623959744821e-03   6.5433417372500842e-03   1.9807891976314392e-03   1.9096940142000265e-02   1.7817051501643245e-02   </DataArray> 
</CellData> 
</Piece>
</UnstructuredGrid>
</VTKFile>