<?xml version="1.0"?>
<VTKFile type="UnstructuredGrid"  version="0.1"  >
<UnstructuredGrid>
<Piece  NumberOfPoints="1089" NumberOfCells="2048">
<Points>
<DataArray  type="Float64"  NumberOfComponents="3"  format="ascii">0 0 0  0.03125 0 0  0.0625 0 0  0.09375 0 0  0.125 0 0  0.15625 0 0  0.1875 0 0  0.21875 0 0  0.25 0 0  0.28125 0 0  0.3125 0 0  0.34375 0 0  0.375 0 0  0.40625 0 0  0.4375 0 0  0.46875 0 0  0.5 0 0  0.53125 0 0  0.5625 0 0  0.59375 0 0  0.625 0 0  0.65625 0 0  0.6875 0 0  0.71875 0 0  0.75 0 0  0.78125 0 0  0.8125 0 0  0.84375 0 0  0.875 0 0  0.90625 0 0  0.9375 0 0  0.96875 0 0  1 0 0  0 0.03125 0  0.03125 0.03125 0  0.0625 0.03125 0  0.09375 0.03125 0  0.125 0.03125 0  0.15625 0.03125 0  0.1875 0.03125 0  0.21875 0.03125 0  0.25 0.03125 0  0.28125 0.03125 0  0.3125 0.03125 0  0.34375 0.03125 0  0.375 0.03125 0  0.40625 0.03125 0  0.4375 0.03125 0  0.46875 0.03125 0  0.5 0.03125 0  0.53125 0.03125 0  0.5625 0.03125 0  0.59375 0.03125 0  0.625 0.03125 0  0.65625 0.03125 0  0.6875 0.03125 0  0.71875 0.03125 0  0.75 0.03125 0  0.78125 0.03125 0  0.8125 0.03125 0  0.84375 0.03125 0  0.875 0.03125 0  0.90625 0.03125 0  0.9375 0.03125 0  0.96875 0.03125 0  1 0.03125 0  0 0.0625 0  0.03125 0.0625 0  0.0625 0.0625 0  0.09375 0.0625 0  0.125 0.0625 0  0.15625 0.0625 0  0.1875 0.0625 0  0.21875 0.0625 0  0.25 0.0625 0  0.28125 0.0625 0  0.3125 0.0625 0  0.34375 0.0625 0  0.375 0.0625 0  0.40625 0.0625 0  0.4375 0.0625 0  0.46875 0.0625 0  0.5 0.0625 0  0.53125 0.0625 0  0.5625 0.0625 0  0.59375 0.0625 0  0.625 0.0625 0  0.65625 0.0625 0  0.6875 0.0625 0  0.71875 0.0625 0  0.75 0.0625 0  0.78125 0.0625 0  0.8125 0.0625 0  0.84375 0.0625 0  0.875 0.0625 0  0.90625 0.0625 0  0.9375 0.0625 0  0.96875 0.0625 0  1 0.0625 0  0 0.09375 0  0.03125 0.09375 0  0.0625 0.09375 0  0.09375 0.09375 0  0.125 0.09375 0  0.15625 0.09375 0  0.1875 0.09375 0  0.21875 0.09375 0  0.25 0.09375 0  0.28125 0.09375 0  0.3125 0.09375 0  0.34375 0.09375 0  0.375 0.09375 0  0.40625 0.09375 0  0.4375 0.09375 0  0.46875 0.09375 0  0.5 0.09375 0  0.53125 0.09375 0  0.5625 0.09375 0  0.59375 0.09375 0  0.625 0.09375 0  0.65625 0.09375 0  0.6875 0.09375 0  0.71875 0.09375 0  0.75 0.09375 0  0.78125 0.09375 0  0.8125 0.09375 0  0.84375 0.09375 0  0.875 0.09375 0  0.90625 0.09375 0  0.9375 0.09375 0  0.96875 0.09375 0  1 0.09375 0  0 0.125 0  0.03125 0.125 0  0.0625 0.125 0  0.09375 0.125 0  0.125 0.125 0  0.15625 0.125 0  0.1875 0.125 0  0.21875 0.125 0  0.25 0.125 0  0.28125 0.125 0  0.3125 0.125 0  0.34375 0.125 0  0.375 0.125 0  0.40625 0.125 0  0.4375 0.125 0  0.46875 0.125 0  0.5 0.125 0  0.53125 0.125 0  0.5625 0.125 0  0.59375 0.125 0  0.625 0.125 0  0.65625 0.125 0  0.6875 0.125 0  0.71875 0.125 0  0.75 0.125 0  0.78125 0.125 0  0.8125 0.125 0  0.84375 0.125 0  0.875 0.125 0  0.90625 0.125 0  0.9375 0.125 0  0.96875 0.125 0  1 0.125 0  0 0.15625 0  0.03125 0.15625 0  0.0625 0.15625 0  0.09375 0.15625 0  0.125 0.15625 0  0.15625 0.15625 0  0.1875 0.15625 0  0.21875 0.15625 0  0.25 0.15625 0  0.28125 0.15625 0  0.3125 0.15625 0  0.34375 0.15625 0  0.375 0.15625 0  0.40625 0.15625 0  0.4375 0.15625 0  0.46875 0.15625 0  0.5 0.15625 0  0.53125 0.15625 0  0.5625 0.15625 0  0.59375 0.15625 0  0.625 0.15625 0  0.65625 0.15625 0  0.6875 0.15625 0  0.71875 0.15625 0  0.75 0.15625 0  0.78125 0.15625 0  0.8125 0.15625 0  0.84375 0.15625 0  0.875 0.15625 0  0.90625 0.15625 0  0.9375 0.15625 0  0.96875 0.15625 0  1 0.15625 0  0 0.1875 0  0.03125 0.1875 0  0.0625 0.1875 0  0.09375 0.1875 0  0.125 0.1875 0  0.15625 0.1875 0  0.1875 0.1875 0  0.21875 0.1875 0  0.25 0.1875 0  0.28125 0.1875 0  0.3125 0.1875 0  0.34375 0.1875 0  0.375 0.1875 0  0.40625 0.1875 0  0.4375 0.1875 0  0.46875 0.1875 0  0.5 0.1875 0  0.53125 0.1875 0  0.5625 0.1875 0  0.59375 0.1875 0  0.625 0.1875 0  0.65625 0.1875 0  0.6875 0.1875 0  0.71875 0.1875 0  0.75 0.1875 0  0.78125 0.1875 0  0.8125 0.1875 0  0.84375 0.1875 0  0.875 0.1875 0  0.90625 0.1875 0  0.9375 0.1875 0  0.96875 0.1875 0  1 0.1875 0  0 0.21875 0  0.03125 0.21875 0  0.0625 0.21875 0  0.09375 0.21875 0  0.125 0.21875 0  0.15625 0.21875 0  0.1875 0.21875 0  0.21875 0.21875 0  0.25 0.21875 0  0.28125 0.21875 0  0.3125 0.21875 0  0.34375 0.21875 0  0.375 0.21875 0  0.40625 0.21875 0  0.4375 0.21875 0  0.46875 0.21875 0  0.5 0.21875 0  0.53125 0.21875 0  0.5625 0.21875 0  0.59375 0.21875 0  0.625 0.21875 0  0.65625 0.21875 0  0.6875 0.21875 0  0.71875 0.21875 0  0.75 0.21875 0  0.78125 0.21875 0  0.8125 0.21875 0  0.84375 0.21875 0  0.875 0.21875 0  0.90625 0.21875 0  0.9375 0.21875 0  0.96875 0.21875 0  1 0.21875 0  0 0.25 0  0.03125 0.25 0  0.0625 0.25 0  0.09375 0.25 0  0.125 0.25 0  0.15625 0.25 0  0.1875 0.25 0  0.21875 0.25 0  0.25 0.25 0  0.28125 0.25 0  0.3125 0.25 0  0.34375 0.25 0  0.375 0.25 0  0.40625 0.25 0  0.4375 0.25 0  0.46875 0.25 0  0.5 0.25 0  0.53125 0.25 0  0.5625 0.25 0  0.59375 0.25 0  0.625 0.25 0  0.65625 0.25 0  0.6875 0.25 0  0.71875 0.25 0  0.75 0.25 0  0.78125 0.25 0  0.8125 0.25 0  0.84375 0.25 0  0.875 0.25 0  0.90625 0.25 0  0.9375 0.25 0  0.96875 0.25 0  1 0.25 0  0 0.28125 0  0.03125 0.28125 0  0.0625 0.28125 0  0.09375 0.28125 0  0.125 0.28125 0  0.15625 0.28125 0  0.1875 0.28125 0  0.21875 0.28125 0  0.25 0.28125 0  0.28125 0.28125 0  0.3125 0.28125 0  0.34375 0.28125 0  0.375 0.28125 0  0.40625 0.28125 0  0.4375 0.28125 0  0.46875 0.28125 0  0.5 0.28125 0  0.53125 0.28125 0  0.5625 0.28125 0  0.59375 0.28125 0  0.625 0.28125 0  0.65625 0.28125 0  0.6875 0.28125 0  0.71875 0.28125 0  0.75 0.28125 0  0.78125 0.28125 0  0.8125 0.28125 0  0.84375 0.28125 0  0.875 0.28125 0  0.90625 0.28125 0  0.9375 0.28125 0  0.96875 0.28125 0  1 0.28125 0  0 0.3125 0  0.03125 0.3125 0  0.0625 0.3125 0  0.09375 0.3125 0  0.125 0.3125 0  0.15625 0.3125 0  0.1875 0.3125 0  0.21875 0.3125 0  0.25 0.3125 0  0.28125 0.3125 0  0.3125 0.3125 0  0.34375 0.3125 0  0.375 0.3125 0  0.40625 0.3125 0  0.4375 0.3125 0  0.46875 0.3125 0  0.5 0.3125 0  0.53125 0.3125 0  0.5625 0.3125 0  0.59375 0.3125 0  0.625 0.3125 0  0.65625 0.3125 0  0.6875 0.3125 0  0.71875 0.3125 0  0.75 0.3125 0  0.78125 0.3125 0  0.8125 0.3125 0  0.84375 0.3125 0  0.875 0.3125 0  0.90625 0.3125 0  0.9375 0.3125 0  0.96875 0.3125 0  1 0.3125 0  0 0.34375 0  0.03125 0.34375 0  0.0625 0.34375 0  0.09375 0.34375 0  0.125 0.34375 0  0.15625 0.34375 0  0.1875 0.34375 0  0.21875 0.34375 0  0.25 0.34375 0  0.28125 0.34375 0  0.3125 0.34375 0  0.34375 0.34375 0  0.375 0.34375 0  0.40625 0.34375 0  0.4375 0.34375 0  0.46875 0.34375 0  0.5 0.34375 0  0.53125 0.34375 0  0.5625 0.34375 0  0.59375 0.34375 0  0.625 0.34375 0  0.65625 0.34375 0  0.6875 0.34375 0  0.71875 0.34375 0  0.75 0.34375 0  0.78125 0.34375 0  0.8125 0.34375 0  0.84375 0.34375 0  0.875 0.34375 0  0.90625 0.34375 0  0.9375 0.34375 0  0.96875 0.34375 0  1 0.34375 0  0 0.375 0  0.03125 0.375 0  0.0625 0.375 0  0.09375 0.375 0  0.125 0.375 0  0.15625 0.375 0  0.1875 0.375 0  0.21875 0.375 0  0.25 0.375 0  0.28125 0.375 0  0.3125 0.375 0  0.34375 0.375 0  0.375 0.375 0  0.40625 0.375 0  0.4375 0.375 0  0.46875 0.375 0  0.5 0.375 0  0.53125 0.375 0  0.5625 0.375 0  0.59375 0.375 0  0.625 0.375 0  0.65625 0.375 0  0.6875 0.375 0  0.71875 0.375 0  0.75 0.375 0  0.78125 0.375 0  0.8125 0.375 0  0.84375 0.375 0  0.875 0.375 0  0.90625 0.375 0  0.9375 0.375 0  0.96875 0.375 0  1 0.375 0  0 0.40625 0  0.03125 0.40625 0  0.0625 0.40625 0  0.09375 0.40625 0  0.125 0.40625 0  0.15625 0.40625 0  0.1875 0.40625 0  0.21875 0.40625 0  0.25 0.40625 0  0.28125 0.40625 0  0.3125 0.40625 0  0.34375 0.40625 0  0.375 0.40625 0  0.40625 0.40625 0  0.4375 0.40625 0  0.46875 0.40625 0  0.5 0.40625 0  0.53125 0.40625 0  0.5625 0.40625 0  0.59375 0.40625 0  0.625 0.40625 0  0.65625 0.40625 0  0.6875 0.40625 0  0.71875 0.40625 0  0.75 0.40625 0  0.78125 0.40625 0  0.8125 0.40625 0  0.84375 0.40625 0  0.875 0.40625 0  0.90625 0.40625 0  0.9375 0.40625 0  0.96875 0.40625 0  1 0.40625 0  0 0.4375 0  0.03125 0.4375 0  0.0625 0.4375 0  0.09375 0.4375 0  0.125 0.4375 0  0.15625 0.4375 0  0.1875 0.4375 0  0.21875 0.4375 0  0.25 0.4375 0  0.28125 0.4375 0  0.3125 0.4375 0  0.34375 0.4375 0  0.375 0.4375 0  0.40625 0.4375 0  0.4375 0.4375 0  0.46875 0.4375 0  0.5 0.4375 0  0.53125 0.4375 0  0.5625 0.4375 0  0.59375 0.4375 0  0.625 0.4375 0  0.65625 0.4375 0  0.6875 0.4375 0  0.71875 0.4375 0  0.75 0.4375 0  0.78125 0.4375 0  0.8125 0.4375 0  0.84375 0.4375 0  0.875 0.4375 0  0.90625 0.4375 0  0.9375 0.4375 0  0.96875 0.4375 0  1 0.4375 0  0 0.46875 0  0.03125 0.46875 0  0.0625 0.46875 0  0.09375 0.46875 0  0.125 0.46875 0  0.15625 0.46875 0  0.1875 0.46875 0  0.21875 0.46875 0  0.25 0.46875 0  0.28125 0.46875 0  0.3125 0.46875 0  0.34375 0.46875 0  0.375 0.46875 0  0.40625 0.46875 0  0.4375 0.46875 0  0.46875 0.46875 0  0.5 0.46875 0  0.53125 0.46875 0  0.5625 0.46875 0  0.59375 0.46875 0  0.625 0.46875 0  0.65625 0.46875 0  0.6875 0.46875 0  0.71875 0.46875 0  0.75 0.46875 0  0.78125 0.46875 0  0.8125 0.46875 0  0.84375 0.46875 0  0.875 0.46875 0  0.90625 0.46875 0  0.9375 0.46875 0  0.96875 0.46875 0  1 0.46875 0  0 0.5 0  0.03125 0.5 0  0.0625 0.5 0  0.09375 0.5 0  0.125 0.5 0  0.15625 0.5 0  0.1875 0.5 0  0.21875 0.5 0  0.25 0.5 0  0.28125 0.5 0  0.3125 0.5 0  0.34375 0.5 0  0.375 0.5 0  0.40625 0.5 0  0.4375 0.5 0  0.46875 0.5 0  0.5 0.5 0  0.53125 0.5 0  0.5625 0.5 0  0.59375 0.5 0  0.625 0.5 0  0.65625 0.5 0  0.6875 0.5 0  0.71875 0.5 0  0.75 0.5 0  0.78125 0.5 0  0.8125 0.5 0  0.84375 0.5 0  0.875 0.5 0  0.90625 0.5 0  0.9375 0.5 0  0.96875 0.5 0  1 0.5 0  0 0.53125 0  0.03125 0.53125 0  0.0625 0.53125 0  0.09375 0.53125 0  0.125 0.53125 0  0.15625 0.53125 0  0.1875 0.53125 0  0.21875 0.53125 0  0.25 0.53125 0  0.28125 0.53125 0  0.3125 0.53125 0  0.34375 0.53125 0  0.375 0.53125 0  0.40625 0.53125 0  0.4375 0.53125 0  0.46875 0.53125 0  0.5 0.53125 0  0.53125 0.53125 0  0.5625 0.53125 0  0.59375 0.53125 0  0.625 0.53125 0  0.65625 0.53125 0  0.6875 0.53125 0  0.71875 0.53125 0  0.75 0.53125 0  0.78125 0.531
[...]
<CellData  Scalars="f_155163"> 
<DataArray  type="Float64"  Name="f_155163"  format="ascii">1.8085887697263318e-07   1.7900593165341760e-07   1.7740620452285316e-07   1.7558463489666015e-07   1.7062872865431419e-07   1.6887226872168427e-07   1.6078684850865443e-07   1.5912685207441032e-07   1.4825873840892626e-07   1.4672296033406749e-07   1.3352581325030995e-07   1.3213733749537631e-07   1.1715422656553121e-07   1.1593057492260996e-07   9.9773112257670373e-08   9.8725566590979924e-08   8.2050406151121412e-08   8.1183569939009217e-08   6.4667176521580597e-08   6.3978792668903937e-08   4.8291450064142374e-08   4.7772482226555797e-08   3.3552539146171455e-08   3.3187513706227708e-08   2.1016856925002872e-08   2.0784452728437695e-08   1.1166149730313748e-08   1.1040013138613645e-08   4.3789832149531494e-09   4.3287373334909574e-09   9.1619373602711586e-10   9.0860317421698807e-10   9.1086404548331835e-10   9.1111054694059986e-10   4.3632085022366230e-09   4.3362284805181727e-09   1.1140564347729265e-08   1.1052396942399918e-08   2.0982489364137822e-08   2.0801583185522668e-08   3.3510770000005288e-08   3.3209198275784670e-08   4.8243955343094117e-08   4.7798492656170418e-08   6.4615858396511186e-08   6.4008877477408195e-08   8.1997313655567013e-08   8.1217467560909021e-08   9.9720354848244558e-08   9.8763018055430149e-08   1.1710388370051312e-07   1.1597133486217633e-07   1.3347984329308755e-07   1.3218118226806643e-07   1.4821889019049663e-07   1.4676969211947461e-07   1.6075457879156589e-07   1.5917629801611710e-07   1.7060512853271210e-07   1.6892427464163032e-07   1.7739193747569329e-07   1.7563905411350005e-07   1.8085413087374800e-07   1.7906261310263775e-07   1.7904486840001620e-07   1.7376475150718588e-07   1.7573399057302294e-07   1.7048298396644212e-07   1.6919439621331895e-07   1.6407289142211820e-07   1.5967737703644812e-07   1.5478084366081635e-07   1.4754866267500928e-07   1.4296399183592943e-07   1.3327437062853201e-07   1.2907654107710603e-07   1.1740309112569095e-07   1.1365228993927155e-07   1.0054480139163982e-07   9.7284110895968146e-08   8.3347420870880313e-08   8.0601161377604293e-08   6.6471908767811648e-08   6.4244701350446334e-08   5.0566861012714511e-08   4.8843446767394671e-08   3.6243582887965764e-08   3.4989405984317132e-08   2.4052595219764174e-08   2.3215127642028909e-08   1.4462476925290027e-08   1.3973234254266301e-08   7.8418569071848717e-09   7.6190278937616330e-09   4.4452472524423058e-09   4.3968363037378591e-09   4.4032620700306647e-09   4.4306240172469724e-09   7.7175977624101361e-09   7.7192291634446849e-09   1.4260967546803367e-08   1.4136408877664424e-08   2.3781992654441433e-08   2.3435691440782522e-08   3.5914862155947716e-08   3.5259848555231603e-08   5.0193390108848025e-08   4.9154623618022570e-08   6.6068929741164881e-08   6.4586188299082689e-08   8.2931456167042232e-08   8.0961656461612988e-08   1.0013300737233653e-07   9.7651866976173652e-08   1.1701258258923221e-07   1.1401555979851992e-07   1.3292154118032636e-07   1.2942401615288740e-07   1.4724852592510820e-07   1.4328521584751810e-07   1.5944295287549523e-07   1.5506658332623132e-07   1.6903616498750329e-07   1.6431544828523558e-07   1.7565943623998282e-07   1.7067643431593688e-07   1.7905813196585654e-07   1.7390510621981708e-07   1.7386966828853489e-07   1.6533015110309585e-07   1.7085944587917304e-07   1.6228046698239661e-07   1.6483799491076332e-07   1.5638651576273315e-07   1.5603669269814846e-07   1.4787479384664337e-07   1.4479378925081201e-07   1.3707245774028164e-07   1.3154140416388900e-07   1.2439474005152028e-07   1.1678891285494151e-07   1.1032898117129073e-07   1.0110336381414864e-07   9.5415890957659854e-08   8.5087680384810024e-08   8.0228760958095100e-08   6.9357485007161944e-08   6.5351426141109254e-08   5.4517436571207234e-08   5.1355823004389411e-08   4.1137990151404464e-08   3.8780006363308832e-08   2.9733472122599318e-08   2.8107469462790753e-08   2.0742313083858001e-08   1.9748561950860402e-08   1.4510198079949806e-08   1.4024719622542278e-08   1.1276781492020044e-08   1.1156111781967668e-08   1.1166476977228688e-08   1.1253180730515313e-08   1.4183676233750426e-08   1.4312398315476135e-08   2.0212580171365858e-08   2.0216402415065377e-08   2.9021648818118115e-08   2.8738507918806478e-08   4.0272498802304663e-08   3.9551418655895816e-08   5.3532906336967676e-08   5.2239805288491869e-08   6.8293415869530405e-08   6.6316265626326527e-08   8.3986916005425520e-08   8.1240053843367477e-08   1.0001043029615932e-07   9.6437858682040188e-08   1.1574828538238653e-07   1.1132583200585223e-07   1.3059576607087581e-07   1.2533202103239456e-07   1.4398234823630365e-07   1.3791834209008638e-07   1.5539361668666900e-07   1.4860125137733026e-07   1.6439102566335760e-07   1.5697031825025233e-07   1.7062874237227755e-07   1.6270398703219038e-07   1.7386692518810153e-07   1.6558192119509711e-07   1.6553033594018386e-07   1.5402440888246775e-07   1.6296828203723893e-07   1.5129054218210820e-07   1.5772557609612693e-07   1.4610694889393451e-07   1.5000366194286116e-07   1.3867279097184025e-07   1.4009932960310071e-07   1.2927380526267734e-07   1.2839329622379507e-07   1.1827130446610207e-07   1.1533556246752635e-07   1.0608827619576333e-07   1.0142810766231273e-07   9.3193114045484686e-08   8.7205589125647264e-08   8.0081605907265551e-08   7.3214787465652544e-08   6.7257871699762308e-08   5.9993587694390819e-08   5.5214982951421257e-08   4.8050303750807752e-08   4.4416008846327628e-08   3.7844140796769380e-08   3.5276216913039400e-08   2.9767545904270791e-08   2.8147112141852518e-08   2.4131125170044593e-08   2.3302927652758576e-08   2.1151706660313645e-08   2.0930085816849299e-08   2.0944007693025477e-08   2.1120034577269842e-08   2.3516226451700416e-08   2.3865734007434721e-08   2.8769727117403747e-08   2.9061927868365531e-08   3.6502830397510443e-08   3.6509189474044024e-08   4.6418563567811656e-08   4.5921586133043306e-08   5.8136071990641102e-08   5.6937667380884008e-08   7.1205253373557226e-08   6.9134354494278641e-08   8.5124052198567623e-08   8.2043197294995439e-08   9.9357749540138694e-08   9.5168373292172870e-08   1.1335950683050928e-07   1.0800573727351178e-07   1.2659137396926094e-07   1.2006218910899062e-07   1.3854495436089034e-07   1.3087461532239889e-07   1.4876093267541508e-07   1.4002767637534810e-07   1.5684671482620586e-07   1.4716975594972031e-07   1.6249150209950995e-07   1.5202645911124569e-07   1.6547821979673689e-07   1.5441114051005028e-07   1.5434551707003755e-07   1.4028016975433982e-07   1.5236207010918261e-07   1.3793379566719813e-07   1.4812900332682240e-07   1.3362764022671808e-07   1.4180895701156189e-07   1.2752711496069624e-07   1.3364486628213989e-07   1.1986669552974486e-07   1.2395060505287041e-07   1.1094088820338810e-07   1.1309890675619640e-07   1.0109289257217976e-07   1.0150702553847311e-07   9.0701395839451701e-08   8.9620688939639574e-08   8.0166006059957465e-08   7.7896958686938776e-08   6.9891884006941836e-08   6.6786658109761856e-08   6.0274164098848070e-08   5.6717041276996848e-08   5.1682762872622114e-08   4.8075369631013672e-08   4.4448158560044254e-08   4.1194026995989891e-08   3.8848687977211531e-08   3.6337744706425910e-08   3.5099848611459977e-08   3.3693427504018647e-08   3.3346016720340302e-08   3.3362970902329643e-08   3.3654899406064594e-08   3.5359345758462272e-08   3.6014933561199823e-08   3.9606100236961566e-08   4.0335731335118687e-08   4.5940298027643472e-08   4.6451554696943872e-08   5.4118779632982271e-08   5.4127685268634688e-08   6.3827505846533686e-08   6.3069444344808309e-08   7.4693624109280505e-08   7.2933516179475443e-08   8.6299793808007905e-08   8.3341139118637479e-08   9.8200219789851983e-08   9.3892657392489040e-08   1.0993777774616218e-07   1.0418287410992429e-07   1.2106157318808469e-07   1.1381661522818795e-07   1.3114425910540463e-07   1.2242390618270838e-07   1.3979844670041773e-07   1.2967417776205249e-07   1.4669157844771433e-07   1.3528895513153687e-07   1.5155869180594746e-07   1.3905254223624874e-07   1.5421258303580451e-07   1.4082029098205085e-07   1.4074323294531992e-07   1.2462385540923359e-07   1.3944671451573312e-07   1.2272182364754202e-07   1.3641557147526913e-07   1.1942660884821973e-07   1.3176625549501827e-07   1.1486474703622246e-07   1.2567751279303600e-07   1.0921157317878764e-07   1.1838349078938326e-07   1.0268445763793875e-07   1.1016471937476046e-07   9.5534430610798818e-08   1.0133731286778071e-07   8.8036516253405974e-08   9.2240807418198854e-08   8.0479147807369140e-08   8.3225101092559368e-08   7.3153070351159011e-08   7.4636998325077310e-08   6.6340157446529205e-08   6.6806875574231806e-08   6.0302571215701651e-08   6.0035980333538760e-08   5.5272682149570487e-08   5.4584851281188506e-08   5.1444135722854947e-08   5.0663304254959683e-08   4.8964408801062522e-08   4.8422368556367722e-08   4.7929141559591377e-08   4.7948483135319991e-08   4.8378462395284660e-08   4.9260175360732630e-08   5.0295446717655565e-08   5.2307349681340143e-08   5.3606768502474956e-08   5.6973213189617671e-08   5.8185519225372152e-08   6.3078763774991954e-08   6.3856085505820816e-08   7.0389668083862003e-08   7.0400897683118539e-08   7.8625264678121762e-08   7.7568789655516151e-08   8.7469346130812352e-08   8.5084648405503965e-08   9.6582305454800212e-08   9.2659982086846180e-08   1.0561417985573924e-07   1.0000400026691715e-07   1.1421809034703647e-07   1.0683478025686400e-07   1.2206356058520280e-07   1.1289009017711960e-07   1.2884920295767155e-07   1.1793745262472859e-07   1.3431428430172300e-07   1.2178306203116773e-07   1.3824872673027218e-07   1.2427921292022490e-07   1.4050115929774724e-07   1.2532995362175057e-07   1.2524446903024579e-07   1.0765546540069906e-07   1.2471690104830640e-07   1.0623760662867955e-07   1.2303394159540359e-07   1.0404810959664366e-07   1.2026023675328440e-07   1.0117099818988522e-07   1.1650246834039040e-07   9.7716852706920509e-08   1.1190522768151610e-07   9.3818533276671243e-08   1.0664543635045027e-07   8.9626050492379915e-08   1.0092552799741104e-07   8.5300780332324245e-08   9.4965653052639713e-08   8.1009245582572952e-08   8.8995205660690635e-08   7.6916702585164298e-08   8.3243998217554477e-08   7.3180779566790063e-08   7.7933422388260351e-08   6.9945410774352478e-08   7.3267935969615549e-08   6.7335299239262786e-08   6.9427202417086033e-08   6.5451120647084448e-08   6.6559184757546709e-08   6.4365652288179128e-08   6.4774458924472672e-08   6.4120975499087401e-08   6.4141964686033856e-08   6.4726858741849715e-08   6.4686357090769214e-08   6.6160383091377641e-08   6.6387059850829971e-08   6.8366824154226544e-08   6.9179056684163842e-08   7.1261756158226927e-08   7.2955389855055370e-08   7.4734296988674393e-08   7.7571269556567188e-08   7.8651369105293576e-08   8.2849635887678912e-08   8.2862812242726686e-08   8.8587959372520216e-08   8.7207151074389874e-08   9.4566018393886984e-08   9.1517795863554944e-08   1.0055435439729668e-07   9.5629437504356477e-08   1.0632307970706488e-07   9.9384390907748954e-08   1.1165069928178636e-07   1.0263864270170030e-07   1.1633260724246176e-07   1.0526737061624443e-07   1.2018893155420202e-07   1.0716972228134154e-07   1.2307142536297020e-07   1.0827266970405193e-07   1.2486914024300947e-07   1.0853379131746093e-07   1.0844318555887379e-07   9.0025543990656289e-08   1.0873712252492025e-07   8.9113131792216638e-08   1.0849693772001732e-07   8.8081744971454760e-08   1.0773183935794101e-07   8.6970887683825374e-08   1.0647133131482086e-07   8.5823253737457700e-08   1.0476405182927920e-07   8.4683058425895792e-08   1.0267588066583963e-07   8.3594315260357935e-08   1.0028738734824368e-07   8.2599123835384133e-08   9.7690718335582470e-08   8.1736034551467248e-08   9.4986042541228743e-08   8.1038552895395000e-08   9.2277691531218055e-08   8.0533840556926307e-08   8.9670142434679277e-08   8.0241663047501852e-08   8.7263997613362837e-08   8.0173623974887127e-08   8.5152115237495863e-08   8.0332715081293346e-08   8.3416039100666246e-08   8.0713198995418607e-08   8.2122864496366836e-08   8.1300828846863997e-08   8.1322660216816099e-08   8.2073395934857241e-08   8.1046545361519487e-08   8.3001584029642041e-08   8.1305494481782657e-08   8.4050097097230921e-08   8.2089916601334327e-08   8.5179016730530133e-08   8.3370023921298906e-08   8.6345336742944600e-08   8.5096975679584062e-08   8.7504615577106650e-08   8.7204752858913106e-08   8.8612682659797319e-08   8.9612691367852261e-08   8.9627332771055600e-08   9.2228576035683614e-08   9.0509942969720213e-08   9.4952176236625157e-08   9.1226949612291412e-08   9.7679087020464894e-08   9.1751128403726740e-08   1.0030472792629730e-07   9.2062628021506017e-08   1.0272834564511707e-07   9.2149717369814168e-08   1.0485686660997201e-07   9.2009217585941983e-08   1.0660845144011699e-07   9.1646602114653783e-08   1.0791561473296055e-07   9.1075761016351290e-08   9.0983517009875793e-08   7.2410198277498411e-08   9.2120013202045695e-08   7.2005125035614273e-08   9.3361869086765463e-08   7.2139827234155446e-08   9.4661348017371502e-08   7.2808988703674576e-08   9.5968621819868183e-08   7.3986888371338493e-08   9.7233658312125685e-08   7.5628361862396292e-08   9.8408120340041418e-08   7.7670513536422460e-08   9.9447203296409464e-08   8.0035113194905724e-08   1.0031134035558022e-07   8.2631585299888519e-08   1.0096770967944220e-07   8.5360475700782155e-08   1.0139148541340488e-07   8.8117262455263829e-08   1.0156678409848554e-07   9.0796364056823190e-08   1.0148726980044652e-07   9.3295190756267534e-08   1.0115639434849411e-07   9.5518082978266781e-08   1.0058726308319314e-07   9.7379985149432084e-08   9.9802130893825884e-08   9.8809713406474767e-08   9.8831547527729775e-08   9.9752691247382693e-08   9.7713184630425211e-08   1.0017304762741826e-07   9.6490389206779927e-08   1.0005499649782382e-07   9.5210518710690226e-08   9.9403444396197176e-08   9.3923121367934783e-08   9.8243802363530420e-08   9.2678031293014939e-08   9.6621009042250859e-08   9.1523451246677289e-08   9.4597802129092831e-08   9.0504096371138979e-08   9.2252304250517712e-08   8.9659469917103592e-08   8.9675015688018012e-08   8.9022336930778938e-08   8.6965329193913463e-08   8.8617454295275220e-08   8.4227700530513267e-08   8.8460605711383953e-08   8.1567621631576321e-08   8.8557978536892619e-08   7.9087550917933981e-08   8.8905906331528741e-08   7.6882957007215758e-08   8.9490986983994912e-08   7.5038627775776629e-08   9.0290571967770205e-08   7.3625386622946354e-08   7.3535037065031039e-08   5.5485128518396219e-08   7.5502826001841346e-08   5.5569826584616130e-08   7.8209135546004104e-08   5.6833861999886279e-08   8.1549961335218745e-08   5.9228516913255259e-08   8.5397032248073918e-08   6.2661751603299672e-08   8.9602713600225363e-08   6.7001716299638880e-08   9.4005657963895305e-08   7.2081795900501883e-08   9.8436986423606867e-08   7.7706993750246830e-08   1.0272676259851626e-07   8.3661409103292808e-08   1.0671051044180363e-07   8.9716520803777874e-08   1.1023552509420667e-07   9.5639958670517218e-08   1.1316673398206520e-07   1.0120442528720732e-07   1.1539188260425999e-07   1.0619642508046044e-07   1.1682584538216906e-07   1.1042446494460258e-07   1.1741389555386991e-07   1.1372641095812360e-07   1.1713380808715327e-07   1.1597571815061417e-07   1.1599671442585338e-07   1.1708629357469115e-07   1.1404667584739160e-07   1.1701580544991217e-07   1.1135899145213971e-07   1.1576731085612663e-07   1.0803730543464728e-07   1.1338913906725085e-07   1.0420962443385781e-07   1.0997303464991313e-07   1.0002339765141620e-07   1.0565063132869472e-07   9.5639848454354037e-08   1.0058839177146170e-07   9.1227774957617468e-08   9.4981207409627481e-08   8.6957057507761389e-08   8.9044903914823515e-08   8.2992122278351119e-08   8.3007940026943581e-08   7.9485611907387876e-08   7.7102618453860016e-08   7.6572506192927889e-08   7.1556146349834318e-08   7.4364918620813077e-08   6.6581888707378758e-08   7.2947768592998083e-08   6.2371150643682185e-08   7.2375495653478488e-08   5.9085804309837142e-08   7.2669942065389517e-08   5.6852043778726181e-08   5.6767040472942958e-08   3.9899669658580594e-08   5.9522957804059974e-08   4.0437780718463964e-08   6.3619939618589591e-08   4.2751058225996175e-08   6.8900549906207325e-08   4.6750466610285175e-08   7.5161973684993139e-08   5.2282288614933595e-08   8.2163786999041822e-08   5.9134009929480347e-08   8.9637175427200336e-08   6.7042466058974823e-08   9.7295246812046666e-08   7.5703938374203540e-08   1.0484404178307461e-07   8.4785811311657334e-08   1.1199381876789803e-07   9.3939342640472424e-08   1.1847017958811753e-07   1.0281305588951791e-07   1.2402460782528392e-07   1.1106624007680244e-07   1.2844401468139902e-07   1.1838203772612641e-07   1.3155892517924314e-07   1.2447961795070512e-07   1.3324998978359263e-07   1.2912496652334804e-07   1.3345257086766574e-07   1.3213987798463937e-07   1.3215922742493937e-07   1.3340880392311803e-07   1.2942000219203392e-07   1.3288329393809801e-07   1.2534049979914445e-07   1.3058385830073125e-07   1.2007782945442403e-07   1.2659918040701323e-07   1.1383456773636546e-07   1.2108270895958713e-07   1.0685097315942704e-07   1.1424676051077236e-07   9.9395751369700932e-08   1.0635435867721206e-07   9.1755725538149545e-08   9.7709123321368881e-08   8.4224808608805480e-08   8.8643597944933707e-08   7.7092700912454077e-08   7.9506463575245720e-08   7.0633747241654428e-08   7.0649130242168858e-08   6.5096381395523340e-08   6.2412221095722675e-08   6.0693563677987820e-08   5.5112468385259590e-08   5.7594578738287772e-08   4.9030524749369550e-08   5.5918508943324792e-08   4.4400158159135691e-08   5.5729634176068562e-08   4.1399245766081447e-08   4.1322831158486126e-08   2.6251842641863388e-08   4.4793464513149657e-08   2.7189609493140933e-08   5.0153962864676049e-08   3.0431768359620857e-08   5.7198345244804997e-08   3.5853597237444318e-08   6.5656012897698507e-08   4.3246709712370538e-08   7.5202127176957119e-08   5.2327043920367372e-08   8.5470074700997017e-08   6.2745761964586434e-08   9.6065540700515498e-08   7.4102640940576238e-08   1.0658164962220145e-07   8.5961440917044766e-08   1.1661459098553560e-07   9.7866659200206937e-08   1.2577912979991419e-07   1.0936102689636281e-07   1.3372340525344774e-07   1.2000307522721939e-07   1.4014244871187716e-07   1.2938409634409254e-07   1.4478990126369705e-07   1.3714384663311649e-07   1.4748748022510504e-07   1.4298438881039542e-07   1.4813183051487367e-07   1.4668154061684088e-07   1.4669849730072709e-07   1.4809348988751631e-07   1.4324286694234755e-07   1.4716624465570546e-07   1.3789803976046863e-07   1.4393570857235435e-07   1.3086971606875185e-07   1.3852630160337798e-07   1.2242829168522227e-07   1.3114617872658638e-07   1.1289846638097298e-07   1.2207923008586927e-07   1.0264676430696521e-07   1.1167416974798969e-07   9.2067445690915100e-08   1.0033113209609478e-07   8.1567350933845411e-08   8.8486290683392133e-08   7.1550259284143094e-08   7.6595090381787913e-08   6.2401362949591081e-08   6.5114736972807711e-08   5.4472453109106091e-08   5.4486616895182879e-08   4.8068386975002461e-08   4.5119322588021798e-08   4.3435355885739867e-08   3.7372935646649816e-08   4.0751405268764691e-08   3.1545171733940781e-08   4.0119570861983019e-08   2.7859919719138056e-08   2.7795005671044948e-08   1.5065375195211524e-08   3.1879507895672269e-08   1.6333702415136899e-08   3.8327865476705587e-08   2.0348726533600579e-08   4.6892302597836308e-08   2.6956040211613367e-08   5.7243798793476961e-08   3.5901694852882618e-08   6.8984715738917904e-08   4.6841944633832477e-08   8.1664063373671430e-08   5.9356443192711667e-08   9.4794818640944429e-08   7.2964385834145550e-08   1.0787263119701519e-07   8.7142976872129786e-08   1.2039519710414507e-07   1.0134751234887142e-07   1.3188155581903418e-07   1.1503230626095782e-07   1.4189056871185835e-07   1.2767165598407036e-07   1.5003786878503546e-07   1.3878004106061513e-07   1.5601062999723959e-07   1.4793077895774396e-07   1.595795