<?xml version="1.0"?>
<VTKFile type="UnstructuredGrid"  version="0.1"  >
<UnstructuredGrid>
<Piece  NumberOfPoints="81" NumberOfCells="128">
<Points>
<DataArray  type="Float64"  NumberOfComponents="3"  format="ascii">0 0 0  0.125 0 0  0.25 0 0  0.375 0 0  0.5 0 0  0.625 0 0  0.75 0 0  0.875 0 0  1 0 0  0 0.125 0  0.125 0.125 0  0.25 0.125 0  0.375 0.125 0  0.5 0.125 0  0.625 0.125 0  0.75 0.125 0  0.875 0.125 0  1 0.125 0  0 0.25 0  0.125 0.25 0  0.25 0.25 0  0.375 0.25 0  0.5 0.25 0  0.625 0.25 0  0.75 0.25 0  0.875 0.25 0  1 0.25 0  0 0.375 0  0.125 0.375 0  0.25 0.375 0  0.375 0.375 0  0.5 0.375 0  0.625 0.375 0  0.75 0.375 0  0.875 0.375 0  1 0.375 0  0 0.5 0  0.125 0.5 0  0.25 0.5 0  0.375 0.5 0  0.5 0.5 0  0.625 0.5 0  0.75 0.5 0  0.875 0.5 0  1 0.5 0  0 0.625 0  0.125 0.625 0  0.25 0.625 0  0.375 0.625 0  0.5 0.625 0  0.625 0.625 0  0.75 0.625 0  0.875 0.625 0  1 0.625 0  0 0.75 0  0.125 0.75 0  0.25 0.75 0  0.375 0.75 0  0.5 0.75 0  0.625 0.75 0  0.75 0.75 0  0.875 0.75 0  1 0.75 0  0 0.875 0  0.125 0.875 0  0.25 0.875 0  0.375 0.875 0  0.5 0.875 0  0.625 0.875 0  0.75 0.875 0  0.875 0.875 0  1 0.875 0  0 1 0  0.125 1 0  0.25 1 0  0.375 1 0  0.5 1 0  0.625 1 0  0.75 1 0  0.875 1 0  1 1 0  </DataArray>
</Points>
<Cells>
<DataArray  type="UInt32"  Name="connectivity"  format="ascii">0 1 10  0 9 10  1 2 11  1 10 11  2 3 12  2 11 12  3 4 13  3 12 13  4 5 14  4 13 14  5 6 15  5 14 15  6 7 16  6 15 16  7 8 17  7 16 17  9 10 19  9 18 19  10 11 20  10 19 20  11 12 21  11 20 21  12 13 22  12 21 22  13 14 23  13 22 23  14 15 24  14 23 24  15 16 25  15 24 25  16 17 26  16 25 26  18 19 28  18 27 28  19 20 29  19 28 29  20 21 30  20 29 30  21 22 31  21 30 31  22 23 32  22 31 32  23 24 33  23 32 33  24 25 34  24 33 34  25 26 35  25 34 35  27 28 37  27 36 37  28 29 38  28 37 38  29 30 39  29 38 39  30 31 40  30 39 40  31 32 41  31 40 41  32 33 42  32 41 42  33 34 43  33 42 43  34 35 44  34 43 44  36 37 46  36 45 46  37 38 47  37 46 47  38 39 48  38 47 48  39 40 49  39 48 49  40 41 50  40 49 50  41 42 51  41 50 51  42 43 52  42 51 52  43 44 53  43 52 53  45 46 55  45 54 55  46 47 56  46 55 56  47 48 57  47 56 57  48 49 58  48 57 58  49 50 59  49 58 59  50 51 60  50 59 60  51 52 61  51 60 61  52 53 62  52 61 62  54 55 64  54 63 64  55 56 65  55 64 65  56 57 66  56 65 66  57 58 67  57 66 67  58 59 68  58 67 68  59 60 69  59 68 69  60 61 70  60 69 70  61 62 71  61 70 71  63 64 73  63 72 73  64 65 74  64 73 74  65 66 75  65 74 75  66 67 76  66 75 76  67 68 77  67 76 77  68 69 78  68 77 78  69 70 79  69 78 79  70 71 80  70 79 80  </DataArray>
<DataArray  type="UInt32"  Name="offsets"  format="ascii">3 6 9 12 15 18 21 24 27 30 33 36 39 42 45 48 51 54 57 60 63 66 69 72 75 78 81 84 87 90 93 96 99 102 105 108 111 114 117 120 123 126 129 132 135 138 141 144 147 150 153 156 159 162 165 168 171 174 177 180 183 186 189 192 195 198 201 204 207 210 213 216 219 222 225 228 231 234 237 240 243 246 249 252 255 258 261 264 267 270 273 276 279 282 285 288 291 294 297 300 303 306 309 312 315 318 321 324 327 330 333 336 339 342 345 348 351 354 357 360 363 366 369 372 375 378 381 384 </DataArray>
<DataArray  type="UInt8"  Name="types"  format="ascii">5 5 5 5 5 5 5 5 5 5 5 5 5 5 5 5 5 5 5 5 5 5 5 5 5 5 5 5 5 5 5 5 5 5 5 5 5 5 5 5 5 5 5 5 5 5 5 5 5 5 5 5 5 5 5 5 5 5 5 5 5 5 5 5 5 5 5 5 5 5 5 5 5 5 5 5 5 5 5 5 5 5 5 5 5 5 5 5 5 5 5 5 5 5 5 5 5 5 5 5 5 5 5 5 5 5 5 5 5 5 5 5 5 5 5 5 5 5 5 5 5 5 5 5 5 5 5 5 </DataArray>
</Cells>
<CellData  Scalars="f_87453"> 
<DataArray  type="Float64"  Name="f_87453"  format="ascii">1.6702609032608710e-07   1.9150634355921464e-07   3.9980746023780066e-07   7.0027518498942688e-07   5.7545236606439636e-07   1.2094002810718314e-06   6.0071420591104661e-07   1.4614754539456576e-06   4.5666390513355888e-07   1.3075022394557579e-06   2.4353866549454802e-07   8.3379063406565890e-07   4.6150346213034481e-08   3.3306092653319635e-07   4.0802315858519165e-08   8.7807129736133443e-08   1.1518364800015021e-06   9.0072103068357821e-07   1.5910178973028714e-06   1.5368639474401779e-06   1.6430048168776448e-06   1.4174065902501459e-06   1.3713569733565736e-06   1.0673714832291916e-06   9.2129842325377242e-07   6.3840295976822430e-07   5.6731965321074718e-07   3.8106659791619758e-07   5.2341309575902845e-07   4.4866475744362572e-07   6.5968030778260989e-07   9.2531802867480640e-07   2.2799511399274876e-06   1.7471731484505245e-06   2.1186520384810537e-06   2.2312514863310917e-06   1.4295004602781288e-06   1.4417867174961492e-06   6.6005544608474289e-07   6.9221174304761580e-07   2.4089770754732293e-07   2.6721065880533645e-07   4.1772053880542722e-07   4.2800958842799994e-07   1.1692700673330177e-06   1.0747069761890149e-06   1.4870368259413704e-06   1.9790767672220899e-06   3.0037327693940544e-06   2.2738320231936160e-06   2.2823670826196378e-06   2.4282071950871062e-06   1.1890939326636162e-06   1.1723711264799438e-06   2.9381364187545591e-07   2.9258890507327698e-07   1.1607425841181415e-07   1.1440777875115864e-07   7.4761670172476476e-07   7.6233554098050380e-07   1.9773800170924978e-06   1.8499564337449741e-06   2.1628451145735754e-06   2.8904621414780810e-06   2.8927901393034309e-06   2.1626748961702765e-06   1.8498442311440781e-06   1.9801198319923566e-06   7.6224956210917554e-07   7.4725649050721165e-07   1.1440143250452815e-07   1.1606824418920087e-07   2.9260996857492278e-07   2.9383511346033228e-07   1.1727249879438225e-06   1.1890736197769688e-06   2.4249648856733870e-06   2.2820160504279328e-06   2.2742435550873578e-06   3.0014159894319894e-06   1.9809960958984208e-06   1.4867247755598931e-06   1.0745543874752957e-06   1.1708781447281360e-06   4.2794648370126669e-07   4.1764412734567120e-07   2.6725124528195803e-07   2.4120177729758205e-07   6.9220661925094049e-07   6.6041889226698985e-07   1.4418432382636723e-06   1.4295565749173363e-06   2.2280470436644475e-06   2.1174806341783198e-06   1.7479338388498201e-06   2.2785679473326997e-06   9.2465467240734176e-07   6.5902578753577747e-07   4.4861494728578091e-07   5.2317509751860472e-07   3.8111260750064860e-07   5.6531677764415372e-07   6.3863598096482154e-07   9.1838620083883620e-07   1.0673295889405404e-06   1.3681702251684170e-06   1.4165720483336240e-06   1.6399785360358321e-06   1.5341390450130535e-06   1.5882415609715039e-06   9.0181864377832752e-07   1.1519550557693781e-06   8.8774901532728968e-08   4.1970599660033689e-08   3.3231222333926772e-07   4.5384637122601659e-08   8.3165734333309356e-07   2.4392901436056203e-07   1.3046771465730401e-06   4.5663756641860781e-07   1.4585645654060684e-06   6.0079259186957932e-07   1.2072642427577838e-06   5.7563001478032029e-07   6.9963100583850933e-07   4.0020371075568956e-07   1.9211092902041617e-07   1.6760897980468093e-07   </DataArray> 
</CellData> 
</Piece>
</UnstructuredGrid>
</VTKFile>