<?xml version="1.0"?>
<VTKFile type="UnstructuredGrid"  version="0.1"  >
<UnstructuredGrid>
<Piece  NumberOfPoints="1089" NumberOfCells="2048">
<Points>
<DataArray  type="Float64"  NumberOfComponents="3"  format="ascii">0 0 0  0.03125 0 0  0.0625 0 0  0.09375 0 0  0.125 0 0  0.15625 0 0  0.1875 0 0  0.21875 0 0  0.25 0 0  0.28125 0 0  0.3125 0 0  0.34375 0 0  0.375 0 0  0.40625 0 0  0.4375 0 0  0.46875 0 0  0.5 0 0  0.53125 0 0  0.5625 0 0  0.59375 0 0  0.625 0 0  0.65625 0 0  0.6875 0 0  0.71875 0 0  0.75 0 0  0.78125 0 0  0.8125 0 0  0.84375 0 0  0.875 0 0  0.90625 0 0  0.9375 0 0  0.96875 0 0  1 0 0  0 0.03125 0  0.03125 0.03125 0  0.0625 0.03125 0  0.09375 0.03125 0  0.125 0.03125 0  0.15625 0.03125 0  0.1875 0.03125 0  0.21875 0.03125 0  0.25 0.03125 0  0.28125 0.03125 0  0.3125 0.03125 0  0.34375 0.03125 0  0.375 0.03125 0  0.40625 0.03125 0  0.4375 0.03125 0  0.46875 0.03125 0  0.5 0.03125 0  0.53125 0.03125 0  0.5625 0.03125 0  0.59375 0.03125 0  0.625 0.03125 0  0.65625 0.03125 0  0.6875 0.03125 0  0.71875 0.03125 0  0.75 0.03125 0  0.78125 0.03125 0  0.8125 0.03125 0  0.84375 0.03125 0  0.875 0.03125 0  0.90625 0.03125 0  0.9375 0.03125 0  0.96875 0.03125 0  1 0.03125 0  0 0.0625 0  0.03125 0.0625 0  0.0625 0.0625 0  0.09375 0.0625 0  0.125 0.0625 0  0.15625 0.0625 0  0.1875 0.0625 0  0.21875 0.0625 0  0.25 0.0625 0  0.28125 0.0625 0  0.3125 0.0625 0  0.34375 0.0625 0  0.375 0.0625 0  0.40625 0.0625 0  0.4375 0.0625 0  0.46875 0.0625 0  0.5 0.0625 0  0.53125 0.0625 0  0.5625 0.0625 0  0.59375 0.0625 0  0.625 0.0625 0  0.65625 0.0625 0  0.6875 0.0625 0  0.71875 0.0625 0  0.75 0.0625 0  0.78125 0.0625 0  0.8125 0.0625 0  0.84375 0.0625 0  0.875 0.0625 0  0.90625 0.0625 0  0.9375 0.0625 0  0.96875 0.0625 0  1 0.0625 0  0 0.09375 0  0.03125 0.09375 0  0.0625 0.09375 0  0.09375 0.09375 0  0.125 0.09375 0  0.15625 0.09375 0  0.1875 0.09375 0  0.21875 0.09375 0  0.25 0.09375 0  0.28125 0.09375 0  0.3125 0.09375 0  0.34375 0.09375 0  0.375 0.09375 0  0.40625 0.09375 0  0.4375 0.09375 0  0.46875 0.09375 0  0.5 0.09375 0  0.53125 0.09375 0  0.5625 0.09375 0  0.59375 0.09375 0  0.625 0.09375 0  0.65625 0.09375 0  0.6875 0.09375 0  0.71875 0.09375 0  0.75 0.09375 0  0.78125 0.09375 0  0.8125 0.09375 0  0.84375 0.09375 0  0.875 0.09375 0  0.90625 0.09375 0  0.9375 0.09375 0  0.96875 0.09375 0  1 0.09375 0  0 0.125 0  0.03125 0.125 0  0.0625 0.125 0  0.09375 0.125 0  0.125 0.125 0  0.15625 0.125 0  0.1875 0.125 0  0.21875 0.125 0  0.25 0.125 0  0.28125 0.125 0  0.3125 0.125 0  0.34375 0.125 0  0.375 0.125 0  0.40625 0.125 0  0.4375 0.125 0  0.46875 0.125 0  0.5 0.125 0  0.53125 0.125 0  0.5625 0.125 0  0.59375 0.125 0  0.625 0.125 0  0.65625 0.125 0  0.6875 0.125 0  0.71875 0.125 0  0.75 0.125 0  0.78125 0.125 0  0.8125 0.125 0  0.84375 0.125 0  0.875 0.125 0  0.90625 0.125 0  0.9375 0.125 0  0.96875 0.125 0  1 0.125 0  0 0.15625 0  0.03125 0.15625 0  0.0625 0.15625 0  0.09375 0.15625 0  0.125 0.15625 0  0.15625 0.15625 0  0.1875 0.15625 0  0.21875 0.15625 0  0.25 0.15625 0  0.28125 0.15625 0  0.3125 0.15625 0  0.34375 0.15625 0  0.375 0.15625 0  0.40625 0.15625 0  0.4375 0.15625 0  0.46875 0.15625 0  0.5 0.15625 0  0.53125 0.15625 0  0.5625 0.15625 0  0.59375 0.15625 0  0.625 0.15625 0  0.65625 0.15625 0  0.6875 0.15625 0  0.71875 0.15625 0  0.75 0.15625 0  0.78125 0.15625 0  0.8125 0.15625 0  0.84375 0.15625 0  0.875 0.15625 0  0.90625 0.15625 0  0.9375 0.15625 0  0.96875 0.15625 0  1 0.15625 0  0 0.1875 0  0.03125 0.1875 0  0.0625 0.1875 0  0.09375 0.1875 0  0.125 0.1875 0  0.15625 0.1875 0  0.1875 0.1875 0  0.21875 0.1875 0  0.25 0.1875 0  0.28125 0.1875 0  0.3125 0.1875 0  0.34375 0.1875 0  0.375 0.1875 0  0.40625 0.1875 0  0.4375 0.1875 0  0.46875 0.1875 0  0.5 0.1875 0  0.53125 0.1875 0  0.5625 0.1875 0  0.59375 0.1875 0  0.625 0.1875 0  0.65625 0.1875 0  0.6875 0.1875 0  0.71875 0.1875 0  0.75 0.1875 0  0.78125 0.1875 0  0.8125 0.1875 0  0.84375 0.1875 0  0.875 0.1875 0  0.90625 0.1875 0  0.9375 0.1875 0  0.96875 0.1875 0  1 0.1875 0  0 0.21875 0  0.03125 0.21875 0  0.0625 0.21875 0  0.09375 0.21875 0  0.125 0.21875 0  0.15625 0.21875 0  0.1875 0.21875 0  0.21875 0.21875 0  0.25 0.21875 0  0.28125 0.21875 0  0.3125 0.21875 0  0.34375 0.21875 0  0.375 0.21875 0  0.40625 0.21875 0  0.4375 0.21875 0  0.46875 0.21875 0  0.5 0.21875 0  0.53125 0.21875 0  0.5625 0.21875 0  0.59375 0.21875 0  0.625 0.21875 0  0.65625 0.21875 0  0.6875 0.21875 0  0.71875 0.21875 0  0.75 0.21875 0  0.78125 0.21875 0  0.8125 0.21875 0  0.84375 0.21875 0  0.875 0.21875 0  0.90625 0.21875 0  0.9375 0.21875 0  0.96875 0.21875 0  1 0.21875 0  0 0.25 0  0.03125 0.25 0  0.0625 0.25 0  0.09375 0.25 0  0.125 0.25 0  0.15625 0.25 0  0.1875 0.25 0  0.21875 0.25 0  0.25 0.25 0  0.28125 0.25 0  0.3125 0.25 0  0.34375 0.25 0  0.375 0.25 0  0.40625 0.25 0  0.4375 0.25 0  0.46875 0.25 0  0.5 0.25 0  0.53125 0.25 0  0.5625 0.25 0  0.59375 0.25 0  0.625 0.25 0  0.65625 0.25 0  0.6875 0.25 0  0.71875 0.25 0  0.75 0.25 0  0.78125 0.25 0  0.8125 0.25 0  0.84375 0.25 0  0.875 0.25 0  0.90625 0.25 0  0.9375 0.25 0  0.96875 0.25 0  1 0.25 0  0 0.28125 0  0.03125 0.28125 0  0.0625 0.28125 0  0.09375 0.28125 0  0.125 0.28125 0  0.15625 0.28125 0  0.1875 0.28125 0  0.21875 0.28125 0  0.25 0.28125 0  0.28125 0.28125 0  0.3125 0.28125 0  0.34375 0.28125 0  0.375 0.28125 0  0.40625 0.28125 0  0.4375 0.28125 0  0.46875 0.28125 0  0.5 0.28125 0  0.53125 0.28125 0  0.5625 0.28125 0  0.59375 0.28125 0  0.625 0.28125 0  0.65625 0.28125 0  0.6875 0.28125 0  0.71875 0.28125 0  0.75 0.28125 0  0.78125 0.28125 0  0.8125 0.28125 0  0.84375 0.28125 0  0.875 0.28125 0  0.90625 0.28125 0  0.9375 0.28125 0  0.96875 0.28125 0  1 0.28125 0  0 0.3125 0  0.03125 0.3125 0  0.0625 0.3125 0  0.09375 0.3125 0  0.125 0.3125 0  0.15625 0.3125 0  0.1875 0.3125 0  0.21875 0.3125 0  0.25 0.3125 0  0.28125 0.3125 0  0.3125 0.3125 0  0.34375 0.3125 0  0.375 0.3125 0  0.40625 0.3125 0  0.4375 0.3125 0  0.46875 0.3125 0  0.5 0.3125 0  0.53125 0.3125 0  0.5625 0.3125 0  0.59375 0.3125 0  0.625 0.3125 0  0.65625 0.3125 0  0.6875 0.3125 0  0.71875 0.3125 0  0.75 0.3125 0  0.78125 0.3125 0  0.8125 0.3125 0  0.84375 0.3125 0  0.875 0.3125 0  0.90625 0.3125 0  0.9375 0.3125 0  0.96875 0.3125 0  1 0.3125 0  0 0.34375 0  0.03125 0.34375 0  0.0625 0.34375 0  0.09375 0.34375 0  0.125 0.34375 0  0.15625 0.34375 0  0.1875 0.34375 0  0.21875 0.34375 0  0.25 0.34375 0  0.28125 0.34375 0  0.3125 0.34375 0  0.34375 0.34375 0  0.375 0.34375 0  0.40625 0.34375 0  0.4375 0.34375 0  0.46875 0.34375 0  0.5 0.34375 0  0.53125 0.34375 0  0.5625 0.34375 0  0.59375 0.34375 0  0.625 0.34375 0  0.65625 0.34375 0  0.6875 0.34375 0  0.71875 0.34375 0  0.75 0.34375 0  0.78125 0.34375 0  0.8125 0.34375 0  0.84375 0.34375 0  0.875 0.34375 0  0.90625 0.34375 0  0.9375 0.34375 0  0.96875 0.34375 0  1 0.34375 0  0 0.375 0  0.03125 0.375 0  0.0625 0.375 0  0.09375 0.375 0  0.125 0.375 0  0.15625 0.375 0  0.1875 0.375 0  0.21875 0.375 0  0.25 0.375 0  0.28125 0.375 0  0.3125 0.375 0  0.34375 0.375 0  0.375 0.375 0  0.40625 0.375 0  0.4375 0.375 0  0.46875 0.375 0  0.5 0.375 0  0.53125 0.375 0  0.5625 0.375 0  0.59375 0.375 0  0.625 0.375 0  0.65625 0.375 0  0.6875 0.375 0  0.71875 0.375 0  0.75 0.375 0  0.78125 0.375 0  0.8125 0.375 0  0.84375 0.375 0  0.875 0.375 0  0.90625 0.375 0  0.9375 0.375 0  0.96875 0.375 0  1 0.375 0  0 0.40625 0  0.03125 0.40625 0  0.0625 0.40625 0  0.09375 0.40625 0  0.125 0.40625 0  0.15625 0.40625 0  0.1875 0.40625 0  0.21875 0.40625 0  0.25 0.40625 0  0.28125 0.40625 0  0.3125 0.40625 0  0.34375 0.40625 0  0.375 0.40625 0  0.40625 0.40625 0  0.4375 0.40625 0  0.46875 0.40625 0  0.5 0.40625 0  0.53125 0.40625 0  0.5625 0.40625 0  0.59375 0.40625 0  0.625 0.40625 0  0.65625 0.40625 0  0.6875 0.40625 0  0.71875 0.40625 0  0.75 0.40625 0  0.78125 0.40625 0  0.8125 0.40625 0  0.84375 0.40625 0  0.875 0.40625 0  0.90625 0.40625 0  0.9375 0.40625 0  0.96875 0.40625 0  1 0.40625 0  0 0.4375 0  0.03125 0.4375 0  0.0625 0.4375 0  0.09375 0.4375 0  0.125 0.4375 0  0.15625 0.4375 0  0.1875 0.4375 0  0.21875 0.4375 0  0.25 0.4375 0  0.28125 0.4375 0  0.3125 0.4375 0  0.34375 0.4375 0  0.375 0.4375 0  0.40625 0.4375 0  0.4375 0.4375 0  0.46875 0.4375 0  0.5 0.4375 0  0.53125 0.4375 0  0.5625 0.4375 0  0.59375 0.4375 0  0.625 0.4375 0  0.65625 0.4375 0  0.6875 0.4375 0  0.71875 0.4375 0  0.75 0.4375 0  0.78125 0.4375 0  0.8125 0.4375 0  0.84375 0.4375 0  0.875 0.4375 0  0.90625 0.4375 0  0.9375 0.4375 0  0.96875 0.4375 0  1 0.4375 0  0 0.46875 0  0.03125 0.46875 0  0.0625 0.46875 0  0.09375 0.46875 0  0.125 0.46875 0  0.15625 0.46875 0  0.1875 0.46875 0  0.21875 0.46875 0  0.25 0.46875 0  0.28125 0.46875 0  0.3125 0.46875 0  0.34375 0.46875 0  0.375 0.46875 0  0.40625 0.46875 0  0.4375 0.46875 0  0.46875 0.46875 0  0.5 0.46875 0  0.53125 0.46875 0  0.5625 0.46875 0  0.59375 0.46875 0  0.625 0.46875 0  0.65625 0.46875 0  0.6875 0.46875 0  0.71875 0.46875 0  0.75 0.46875 0  0.78125 0.46875 0  0.8125 0.46875 0  0.84375 0.46875 0  0.875 0.46875 0  0.90625 0.46875 0  0.9375 0.46875 0  0.96875 0.46875 0  1 0.46875 0  0 0.5 0  0.03125 0.5 0  0.0625 0.5 0  0.09375 0.5 0  0.125 0.5 0  0.15625 0.5 0  0.1875 0.5 0  0.21875 0.5 0  0.25 0.5 0  0.28125 0.5 0  0.3125 0.5 0  0.34375 0.5 0  0.375 0.5 0  0.40625 0.5 0  0.4375 0.5 0  0.46875 0.5 0  0.5 0.5 0  0.53125 0.5 0  0.5625 0.5 0  0.59375 0.5 0  0.625 0.5 0  0.65625 0.5 0  0.6875 0.5 0  0.71875 0.5 0  0.75 0.5 0  0.78125 0.5 0  0.8125 0.5 0  0.84375 0.5 0  0.875 0.5 0  0.90625 0.5 0  0.9375 0.5 0  0.96875 0.5 0  1 0.5 0  0 0.53125 0  0.03125 0.53125 0  0.0625 0.53125 0  0.09375 0.53125 0  0.125 0.53125 0  0.15625 0.53125 0  0.1875 0.53125 0  0.21875 0.53125 0  0.25 0.53125 0  0.28125 0.53125 0  0.3125 0.53125 0  0.34375 0.53125 0  0.375 0.53125 0  0.40625 0.53125 0  0.4375 0.53125 0  0.46875 0.53125 0  0.5 0.53125 0  0.53125 0.53125 0  0.5625 0.53125 0  0.59375 0.53125 0  0.625 0.53125 0  0.65625 0.53125 0  0.6875 0.53125 0  0.71875 0.53125 0  0.75 0.53125 0  0.78125 0.531
[...]
<CellData  Scalars="f_64767"> 
<DataArray  type="Float64"  Name="f_64767"  format="ascii">2.8932127617988657e-06   2.8606981984446072e-06   2.8380259447495020e-06   2.8060443619446478e-06   2.7296804722774014e-06   2.6988235179695266e-06   2.5723389902717257e-06   2.5431580110819275e-06   2.3720472612010214e-06   2.3450314108836991e-06   2.1365017944111919e-06   2.1120589666663939e-06   1.8747540442584585e-06   1.8531950413142827e-06   1.5968625418730215e-06   1.5783890086735398e-06   1.3135063283171733e-06   1.2982028913473192e-06   1.0355745444023221e-06   1.0234054504733615e-06   7.7374794880588109e-07   7.6455833279692703e-07   5.3808844632725202e-07   5.3161018137897811e-07   3.3765240027630462e-07   3.3351430851609705e-07   1.8014258895018620e-07   1.7788462320468000e-07   7.1612181058129530e-08   7.0703035032993775e-08   1.6232105875011411e-08   1.6089578006253838e-08   1.6130757667416387e-08   1.6144087438804452e-08   7.1312194164672879e-08   7.0865513263773552e-08   1.7965597236745185e-07   1.7815196957009382e-07   3.3699862771998320e-07   3.3388151752102497e-07   5.3729366518223471e-07   5.3207057626628381e-07   7.7284391359874238e-07   7.6510387325794086e-07   1.0345973139175100e-06   1.0240270961548212e-06   1.3124947741346048e-06   1.2988909989003134e-06   1.5958567230059187e-06   1.5791337371673982e-06   1.8737935074714552e-06   1.8539867391404862e-06   2.1356238625313191e-06   2.1128885129286272e-06   2.3712853722143827e-06   2.3458904863187413e-06   2.5717211482267113e-06   2.5440392791340845e-06   2.7292278670819119e-06   2.6997207089065564e-06   2.8377517920760227e-06   2.8069522801304178e-06   2.8931214074551342e-06   2.8616127688385122e-06   2.8613590250696081e-06   2.7744009768937614e-06   2.8085683583856578e-06   2.7220519999937240e-06   2.7042477715794820e-06   2.6198280405390907e-06   2.5524067714422753e-06   2.4716588435348440e-06   2.3588808780581597e-06   2.2832399821121768e-06   2.1311077389861595e-06   2.0618141098408553e-06   1.8778413514080603e-06   1.8158926008461941e-06   1.6088156227300241e-06   1.5549283917219403e-06   1.3343702543241165e-06   1.2889526366095058e-06   1.0650533437849806e-06   1.0281891507561717e-06   8.1121598403316041e-07   7.8266146290906700e-07   5.8261444069190862e-07   5.6180757790172631e-07   3.8803519606413873e-07   3.7411725315693144e-07   2.3495726842734572e-07   2.2680572696730648e-07   1.2926478247898849e-07   1.2553643524835100e-07   7.5020835427516088e-08   7.4203370677344982e-08   7.4311347560575428e-08   7.4781446016219757e-08   1.2716489660719674e-07   1.2725061001257915e-07   2.3155161518409204e-07   2.2959662999047887e-07   3.8346119227793867e-07   3.7788850899111870e-07   5.7705697982206375e-07   5.6642956032023305e-07   8.0490028079663499e-07   7.8797633177734768e-07   1.0582361983020965e-06   1.0340169644604561e-06   1.3273300593665932e-06   1.2950982870590752e-06   1.6018414837446124e-06   1.5611890737389579e-06   1.8712217212996958e-06   1.8220655040436782e-06   2.1251189872469700e-06   2.0677040100543139e-06   2.3537762166873079e-06   2.2886664119962421e-06   2.5484059495960218e-06   2.4764625389195002e-06   2.7015279309634832e-06   2.6238763925069195e-06   2.8072564222059873e-06   2.7252432982831266e-06   2.8615260323999567e-06   2.7766673256661592e-06   2.7761335607969286e-06   2.6374701918271176e-06   2.7282509743978794e-06   2.5888901830858578e-06   2.6323921461489288e-06   2.4950478880692508e-06   2.4922413550364985e-06   2.3595501742160257e-06   2.3131854079562458e-06   2.1876055411490771e-06   2.1021067264564726e-06   1.9858238365602684e-06   1.8671188007722386e-06   1.7619620946236997e-06   1.6172542937239386e-06   1.5246262866664024e-06   1.3621178199457957e-06   1.2829404629012704e-06   1.1115167566568985e-06   1.0461960067600075e-06   8.7508427760054988e-07   8.2349448227011492e-07   6.6190909732748669e-07   6.2339779866562357e-07   4.8018615360069410e-07   4.5359913411648669e-07   3.3690165027167847e-07   3.2062726216193920e-07   2.3756456210144548e-07   2.2959564050616270e-07   1.8599491726452662e-07   1.8400590149430309e-07   1.8417699122500339e-07   1.8561329288968694e-07   2.3218305111837702e-07   2.3435923683453691e-07   3.2817057855591570e-07   3.2837359556771064e-07   4.6845307506388336e-07   4.6404655371245595e-07   6.4764172668796631e-07   6.3616735167050460e-07   8.5885248129570486e-07   8.3812453568144280e-07   1.0939705784393145e-06   1.0621600261537007e-06   1.3439623638954054e-06   1.2996672378012748e-06   1.5992224040108219e-06   1.5415217924029398e-06   1.8499425585635065e-06   1.7784321126892314e-06   2.0864888270608242e-06   2.0012964220272725e-06   2.2997714845022006e-06   2.2015524283946649e-06   2.4815942795411962e-06   2.3715062515303752e-06   2.6249692687032103e-06   2.5046279469895315e-06   2.7243851659710915e-06   2.5958022578529726e-06   2.7760188250108583e-06   2.6415249432693527e-06   2.6407370038882128e-06   2.4550908950310354e-06   2.6000941283693828e-06   2.4116030925236592e-06   2.5168188681599313e-06   2.3292125972266249e-06   2.3941116658057104e-06   2.2110854882763591e-06   2.2366893190367727e-06   2.0617625418599030e-06   2.0506035562029060e-06   1.8869844440416281e-06   1.8430082960867311e-06   1.6934709309136624e-06   1.6218845530414678e-06   1.4886623325327740e-06   1.3957335754136379e-06   1.2804334557724989e-06   1.1732500162383837e-06   1.0767908033454317e-06   9.6298769731284705e-07   8.8556476434087107e-07   7.7303080991576068e-07   7.1410860318048900e-07   6.1068318535062974e-07   5.6901581163852652e-07   4.8218757347587713e-07   4.5586668234488148e-07   3.9248571386623836e-07   3.7901383893073431e-07   3.4502841643524347e-07   3.4141496073902479e-07   3.4164294642753054e-07   3.4451912629491874e-07   3.8246280649610515e-07   3.8821113917140115e-07   4.6592261071445336e-07   4.7081597167613677e-07   5.8881824398537596e-07   5.8916315153554130e-07   7.4642999151356149e-07   7.3870861325010683e-07   9.3270390322234917e-07   9.1370932756048127e-07   1.1404844202086913e-06   1.1074439943655535e-06   1.3617893205454418e-06   1.3124713144153748e-06   1.5881164156519393e-06   1.5209159111831939e-06   1.8107702085474660e-06   1.7247709119768687e-06   2.0211959584023806e-06   1.9162055573342588e-06   2.2113083112271807e-06   2.0878660145039504e-06   2.3738018647353318e-06   2.2331578314679439e-06   2.5024317270738214e-06   2.3464991723276678e-06   2.5922532755787486e-06   2.4235350974380921e-06   2.6398118851981150e-06   2.4613046577878617e-06   2.4602966031469467e-06   2.2341949746912957e-06   2.4289528647611765e-06   2.1969300908453873e-06   2.3619083651384382e-06   2.1286281005807674e-06   2.2617396219865269e-06   2.0319130915973689e-06   2.1322975574385067e-06   1.9105027858121386e-06   1.9785591857932392e-06   1.7690652904212212e-06   1.8064360779410689e-06   1.6130393841466834e-06   1.6225469452325373e-06   1.4484252325671119e-06   1.4339630830262004e-06   1.2815535722793297e-06   1.2479364573837954e-06   1.1188422327846349e-06   1.0716208833907389e-06   9.6654935093765092e-07   9.1179700749121404e-07   8.3053275890111194e-07   7.7461165909807848e-07   7.1602478849844218e-07   6.6534158401055665e-07   6.2743114186494580e-07   5.8819063490611228e-07   5.6816155311012243e-07   5.4612820828687353e-07   5.4049874379802886e-07   5.4077513212302240e-07   5.4551070335055589e-07   5.7234138492887845e-07   5.8300966048980375e-07   6.3961803519719051e-07   6.5155931754001924e-07   7.4002370653406404e-07   7.4853006474008044e-07   8.6970377855479415e-07   8.7020004794893758e-07   1.0236785071367112e-06   1.0118982011141743e-06   1.1960343678627828e-06   1.1681837423321358e-06   1.3801512656703428e-06   1.3330552312298969e-06   1.5689568756701702e-06   1.5001811495828435e-06   1.7551983377691499e-06   1.6631431401751914e-06   1.9317208611232219e-06   1.8156825526458828e-06   2.0917425290618362e-06   1.9519408180627481e-06   2.2291147408842415e-06   2.0666844111112505e-06   2.3385582779439929e-06   2.1555057513573172e-06   2.4158659175511380e-06   2.2149923218649320e-06   2.4580638112634818e-06   2.2428575122253546e-06   2.2416707051549630e-06   1.9831964168082673e-06   2.2213330474263887e-06   1.9530487232303345e-06   2.1735506536940366e-06   1.9009364573687656e-06   2.1001597349269091e-06   1.8288610869503147e-06   2.0039823833675241e-06   1.7395932460676151e-06   1.8887177119264709e-06   1.6365658336695156e-06   1.7587993604616344e-06   1.5237417216706298e-06   1.6192248268816446e-06   1.4054611498368744e-06   1.4753631763101389e-06   1.2862746684533181e-06   1.3327485154211514e-06   1.1707680461606578e-06   1.1968671658472048e-06   1.0633858688276878e-06   1.0729467118692592e-06   9.6826060495977953e-07   9.6575502486038053e-07   8.8905370241361293e-07   8.7941698307792056e-07   8.2881481831575639e-07   8.1725592509689706e-07   7.8986458687349258e-07   7.8166592452068409e-07   7.7370542498866330e-07   7.7401978910607734e-07   7.8096379797132697e-07   7.9461631456449142e-07   8.1136615859773488e-07   8.4266881481435415e-07   8.6374947869428856e-07   9.1633536430931079e-07   9.3610596308743726e-07   1.0127895852086287e-06   1.0256602222109878e-06   1.1283292541917160e-06   1.1289759323852819e-06   1.2585185505194358e-06   1.2420878797133668e-06   1.3983584743670511e-06   1.3606543082181709e-06   1.5424788821696185e-06   1.4801237127522225e-06   1.6853447553174663e-06   1.5959096623178319e-06   1.8214687719014867e-06   1.7035669310603332e-06   1.9456220092862367e-06   1.7989621642103448e-06   2.0530346773373029e-06   1.8784325167092511e-06   2.1395791655978049e-06   1.9389261654625373e-06   2.2019283691754010e-06   1.9781192950799019e-06   2.2376832151183267e-06   1.9945050652361195e-06   1.9931868635441633e-06   1.7116694170585149e-06   1.9851433853984392e-06   1.6892620417568120e-06   1.9589211305935378e-06   1.6548238016907101e-06   1.9155277814467798e-06   1.6096766142220379e-06   1.8566328335139238e-06   1.5555560827614086e-06   1.7845029888632808e-06   1.4945443484743975e-06   1.7019146694910452e-06   1.4289896829648667e-06   1.6120470025657973e-06   1.3614159093103908e-06   1.5183593840077878e-06   1.2944251298524756e-06   1.4244583215347973e-06   1.2305974961973965e-06   1.3339586704664660e-06   1.1723918700403689e-06   1.2503445906073831e-06   1.1220511885627702e-06   1.1768355627216250e-06   1.0815161667627607e-06   1.1162626082536426e-06   1.0523506482072753e-06   1.0709594635656412e-06   1.0356814676805388e-06   1.0426728851033261e-06   1.0321551312613351e-06   1.0324955266335742e-06   1.0419129729080983e-06   1.0408239622515130e-06   1.0645857364916385e-06   1.0673434625497323e-06   1.0993077856604074e-06   1.1110401033027172e-06   1.1447503896340994e-06   1.1702397357513227e-06   1.1991727999735187e-06   1.2426723154355469e-06   1.2604891497413977e-06   1.3255591121900424e-06   1.3263485985169224e-06   1.4157194448373927e-06   1.3942256378282613e-06   1.5096928340755424e-06   1.4615170812785641e-06   1.6038718748890136e-06   1.5256420069751157e-06   1.6946407182706829e-06   1.5841408067120775e-06   1.7785138369430956e-06   1.6347695311145122e-06   1.8522697394490434e-06   1.6755859014208529e-06   1.9130744921206130e-06   1.7050236799997157e-06   1.9585903023154681e-06   1.7219525409002423e-06   1.9870649949906506e-06   1.7257211412125741e-06   1.7243232920393514e-06   1.4299816482851183e-06   1.7293931431071301e-06   1.4156423443411437e-06   1.7262065403274590e-06   1.3996878258657510e-06   1.7148859967006554e-06   1.3827294485404136e-06   1.6958686192818722e-06   1.3654193468236770e-06   1.6698888502812597e-06   1.3484249201039873e-06   1.6379498480299553e-06   1.3324027877790742e-06   1.6012846029905352e-06   1.3179732134908491e-06   1.5613082784999950e-06   1.3056959798326361e-06   1.5195636035634455e-06   1.2960486383080866e-06   1.4776614119369821e-06   1.2894079672742414e-06   1.4372186078832419e-06   1.2860353466192407e-06   1.3997959374344891e-06   1.2860666068125503e-06   1.3668379510973805e-06   1.2895067375339135e-06   1.3396174594438467e-06   1.2962296539604509e-06   1.3191866101978082e-06   1.3059830241508986e-06   1.3063364608668148e-06   1.3183979662751197e-06   1.3015665944556570e-06   1.3330032371566939e-06   1.3050659398552049e-06   1.3492433609204376e-06   1.3167055279598271e-06   1.3664999950769996e-06   1.3360434559620966e-06   1.3841157069592926e-06   1.3623418632412974e-06   1.4014192408221803e-06   1.3945952608222309e-06   1.4177512986952579e-06   1.4315691202859287e-06   1.4324898384390871e-06   1.4718472340288924e-06   1.4450739111694318e-06   1.5138860220506521e-06   1.4550251165840179e-06   1.5560736939548958e-06   1.4619658466194472e-06   1.5967919888545386e-06   1.4656336118129558e-06   1.6344781176060732e-06   1.4658908960604261e-06   1.6676845252383362e-06   1.4627301584111823e-06   1.6951341771822720e-06   1.4562737884473919e-06   1.7157692479159430e-06   1.4467690172179524e-06   1.4453458391588069e-06   1.1488967812070007e-06   1.4638472235954313e-06   1.1426450705159224e-06   1.4842917355379122e-06   1.1452776348880287e-06   1.5058938754743920e-06   1.1566913985861945e-06   1.5278256497093416e-06   1.1764479912184460e-06   1.5492479362592431e-06   1.2037901562553964e-06   1.5693423400268160e-06   1.2376704663463080e-06   1.5873423113377420e-06   1.2767912419771439e-06   1.6025623287848288e-06   1.3196541384093299e-06   1.6144240211165504e-06   1.3646174933257649e-06   1.6224782200861186e-06   1.4099592284980871e-06   1.6264220920950946e-06   1.4539428846054540e-06   1.6261106851614327e-06   1.4948842473255707e-06   1.6215624420073266e-06   1.5312159996074797e-06   1.6129584616714134e-06   1.5615479105135088e-06   1.6006355321054960e-06   1.5847202422519874e-06   1.5850731954786614e-06   1.5998483174253043e-06   1.5668753371661692e-06   1.6063565280667196e-06   1.5467469998362518e-06   1.6040004736674839e-06   1.5254673075597610e-06   1.5928763715171735e-06   1.5038595344096447e-06   1.5734173717521924e-06   1.4827594618406521e-06   1.5463769127446972e-06   1.4629832350345891e-06   1.5127997505233011e-06   1.4452959478462666e-06   1.4739817696794689e-06   1.4303821582525045e-06   1.4314201144832144e-06   1.4188194623836527e-06   1.3867555511637118e-06   1.4110561381645468e-06   1.3417092712376997e-06   1.4073937138462008e-06   1.2980165599449713e-06   1.4079751283269055e-06   1.2573598750891035e-06   1.4127789364954900e-06   1.2213039052404948e-06   1.4216197822235746e-06   1.1912351013797724e-06   1.4341551229892784e-06   1.1683080054489480e-06   1.1669144397488065e-06   8.7916156032919129e-07   1.1986519291386672e-06   8.8070773619235927e-07   1.2424193215965457e-06   9.0131985862351555e-07   1.2965349739019723e-06   9.4020386808021187e-07   1.3589214557350273e-06   9.9586556158139810e-07   1.4271849552743413e-06   1.0661676075135747e-06   1.4987068998487635e-06   1.1484113232795365e-06   1.5707442700849012e-06   1.2394400733131921e-06   1.6405347502638604e-06   1.3357603131534109e-06   1.7054026707795735e-06   1.4336756262441643e-06   1.7628616674813274e-06   1.5294285999981519e-06   1.8107101083210472e-06   1.6193450856831091e-06   1.8471156152498303e-06   1.6999752944902578e-06   1.8706854280236511e-06   1.7682263032568090e-06   1.8805199004083722e-06   1.8214808730575485e-06   1.8762470672914942e-06   1.8576980095780234e-06   1.8580369485109532e-06   1.8754913955977798e-06   1.8265950338324683e-06   1.8741826760926904e-06   1.7831351935146240e-06   1.8538275427217476e-06   1.7293330495491154e-06   1.8152136096573032e-06   1.6672615935665213e-06   1.7598301566829137e-06   1.5993115197028076e-06   1.6898108965654297e-06   1.5280993282209057e-06   1.6078519603676645e-06   1.4563667258091556e-06   1.5171082467865589e-06   1.3868751831901450e-06   1.4210721131895626e-06   1.3222996971267726e-06   1.3234390648565775e-06   1.2651258349712834e-06   1.2279655989518404e-06   1.2175540144128428e-06   1.1383246617712755e-06   1.1814146939096690e-06   1.0579642702502850e-06   1.1580977311700197e-06   9.8997472803309809e-07   1.1484986240931728e-06   9.3696953721509959e-07   1.1529837016879660e-06   9.0098458186374756e-07   8.9967419404444893e-07   6.3109333796145625e-07   9.4394582426855748e-07   6.3984936104968167e-07   1.0098353091048567e-06   6.7714543142075853e-07   1.0948110183999658e-06   7.4154639356641385e-07   1.1956095619244226e-06   8.3057729318237958e-07   1.3083608105901642e-06   9.4081812799779079e-07   1.4287362853152373e-06   1.0680349583557248e-06   1.5521152106531512e-06   1.2073423391222677e-06   1.6737618500657641e-06   1.3533908300492414e-06   1.7890073052022665e-06   1.5005723772399908e-06   1.8934287892938606e-06   1.6432356708952929e-06   1.9830194812978428e-06   1.7759032005118050e-06   2.0543424289811336e-06   1.8934816629378778e-06   2.1046625817962826e-06   1.9914576336993302e-06   2.1320518746040184e-06   2.0660709779767980e-06   2.1354633187494753e-06   2.1144593327735851e-06   2.1147712478794490e-06   2.1347681032966135e-06   2.0707761664390048e-06   2.1262217416400724e-06   2.0051740090082589e-06   2.0891535635985601e-06   1.9204909862660554e-06   2.0249929526554654e-06   1.8199865158368381e-06   1.9362104376740005e-06   1.7075279627770428e-06   1.8262227496356324e-06   1.5874419978655906e-06   1.6992615007249209e-06   1.4643482805588947e-06   1.5602105270637624e-06   1.3429818529387030e-06   1.4144181407439185e-06   1.2280110651330273e-06   1.2674915012375107e-06   1.1238580248701435e-06   1.1250810037448228e-06   1.0345284674492843e-06   9.9266296617187459e-07   9.6345758122492297e-07   8.7532896247286052e-07   9.1337771163789061e-07   7.7758989552904784e-07   8.8621302744070501e-07   7.0320233735703879e-07   8.8300519835892499e-07   6.5502381005676651e-07   6.5384682304262906e-07   4.1418395274241406e-07   7.0947069550733128e-07   4.2928582024123406e-07   7.9543443138169306e-07   4.8133141918203521e-07   9.0843511257484034e-07   5.6831893052286505e-07   1.0441322743355225e-06   6.8690528442422993e-07   1.1973143714361378e-06   8.3253433186010054e-07   1.3620987637355148e-06   9.9961166930927588e-07   1.5321575353029133e-06   1.1817193979884201e-06   1.7009604674825694e-06   1.3718625638532455e-06   1.8620258262745560e-06   1.5627378066050903e-06   2.0091693234898887e-06   1.7470138919480504e-06   2.1367416808384294e-06   1.9176133441855965e-06   2.2398456637069374e-06   2.0679843535259090e-06   2.3145242400532778e-06   2.1923525058219391e-06   2.3579126292527791e-06   2.2859426575639609e-06   2.3683483932303967e-06   2.3451624259723730e-06   2.3454353344749323e-06   2.3677402389121535e-06   2.2900587405838862e-06   2.3528126353891904e-06   2.2043513846160766e-06   2.3009574574819493e-06   2.0916115828812009e-06   2.2141716537702086e-06   1.9561764541537550e-06   2.0957945427442123e-06   1.8032552458680215e-06   1.9503794805251165e-06   1.6387291274869742e-06   1.7835188599679002e-06   1.4689251399779045e-06   1.6016291616720675e-06   1.3003729836682510e-06   1.4117043126869498e-06   1.1395539865439339e-06   1.2210468267917468e-06   9.9265189596138910e-07   1.0369870543654645e-06   8.6531506724163576e-07   8.6660132723778622e-07   7.6243918540807448e-07   7.1643982697502733e-07   6.8797886826406381e-07   5.9227463217541938e-07   6.4479539040187601e-07   4.9887762588952504e-07   6.3454638123956487e-07   4.3983679808610479e-07   4.3883823562382911e-07   2.3673520906703146e-07   5.0419759554070056e-07   2.5707593664129939e-07   6.0741879331370033e-07   3.2137169170432030e-07   7.4453586452445527e-07   4.2715012792744215e-07   9.1028141205586744e-07   5.7034595020293427e-07   1.0982887591691541e-06   7.4545691154191291e-07   1.3013363835682688e-06   9.4575505827146912e-07   1.5116252382971855e-06   1.1635451051270770e-06   1.7210783008199175e-06   1.3904600103323449e-06   1.9216508368752160e-06   1.6177823908943815e-06   2.1056394534833611e-06   1.8367794250060632e-06   2.2659780616396504e-06   2.0390383698196518e-06   2.3965093719779064e-06   2.2167897988908683e-06   2.4922214866891543e-06   2.3632061352256915e-06   2.54944049