<?xml version="1.0"?>
<VTKFile type="UnstructuredGrid"  version="0.1"  >
<UnstructuredGrid>
<Piece  NumberOfPoints="25" NumberOfCells="32">
<Points>
<DataArray  type="Float64"  NumberOfComponents="3"  format="ascii">0 0 0  0.25 0 0  0.5 0 0  0.75 0 0  1 0 0  0 0.25 0  0.25 0.25 0  0.5 0.25 0  0.75 0.25 0  1 0.25 0  0 0.5 0  0.25 0.5 0  0.5 0.5 0  0.75 0.5 0  1 0.5 0  0 0.75 0  0.25 0.75 0  0.5 0.75 0  0.75 0.75 0  1 0.75 0  0 1 0  0.25 1 0  0.5 1 0  0.75 1 0  1 1 0  </DataArray>
</Points>
<Cells>
<DataArray  type="UInt32"  Name="connectivity"  format="ascii">0 1 6  0 5 6  1 2 7  1 6 7  2 3 8  2 7 8  3 4 9  3 8 9  5 6 11  5 10 11  6 7 12  6 11 12  7 8 13  7 12 13  8 9 14  8 13 14  10 11 16  10 15 16  11 12 17  11 16 17  12 13 18  12 17 18  13 14 19  13 18 19  15 16 21  15 20 21  16 17 22  16 21 22  17 18 23  17 22 23  18 19 24  18 23 24  </DataArray>
<DataArray  type="UInt32"  Name="offsets"  format="ascii">3 6 9 12 15 18 21 24 27 30 33 36 39 42 45 48 51 54 57 60 63 66 69 72 75 78 81 84 87 90 93 96 </DataArray>
<DataArray  type="UInt8"  Name="types"  format="ascii">5 5 5 5 5 5 5 5 5 5 5 5 5 5 5 5 5 5 5 5 5 5 5 5 5 5 5 5 5 5 5 5 </DataArray>
</Cells>
<CellData  Scalars="f_64851"> 
<DataArray  type="Float64"  Name="f_64851"  format="ascii">2.7866532062647781e-06   2.4909452505056361e-06   4.9653877314477865e-07   1.2697505847179500e-06   2.5414799373929768e-06   2.2748945315698446e-06   4.9004512265690687e-06   3.7390063523083965e-06   9.8691365035244892e-07   2.7277758977570772e-07   2.8533319343565829e-06   2.6899885624377677e-06   3.2709441589535077e-06   3.6948139368470358e-06   1.3407701526781872e-06   1.3809882538130822e-06   2.2849072916560421e-06   3.1068116720838228e-06   3.4838514559982482e-06   3.2171245231248173e-06   2.2172313971719591e-06   1.9897544701935189e-06   9.6302617837676620e-07   2.0155929401666436e-06   4.3566936300074244e-06   5.4581205083326965e-06   1.2318929795446389e-06   1.7721831876259049e-06   1.6428712743536597e-06   5.0650207834976877e-07   4.7932850856990100e-06   4.4333464371463675e-06   </DataArray> 
</CellData> 
</Piece>
</UnstructuredGrid>
</VTKFile>