<?xml version="1.0"?>
<VTKFile type="UnstructuredGrid"  version="0.1"  >
<UnstructuredGrid>
<Piece  NumberOfPoints="1089" NumberOfCells="2048">
<Points>
<DataArray  type="Float64"  NumberOfComponents="3"  format="ascii">0 0 0  0.03125 0 0  0.0625 0 0  0.09375 0 0  0.125 0 0  0.15625 0 0  0.1875 0 0  0.21875 0 0  0.25 0 0  0.28125 0 0  0.3125 0 0  0.34375 0 0  0.375 0 0  0.40625 0 0  0.4375 0 0  0.46875 0 0  0.5 0 0  0.53125 0 0  0.5625 0 0  0.59375 0 0  0.625 0 0  0.65625 0 0  0.6875 0 0  0.71875 0 0  0.75 0 0  0.78125 0 0  0.8125 0 0  0.84375 0 0  0.875 0 0  0.90625 0 0  0.9375 0 0  0.96875 0 0  1 0 0  0 0.03125 0  0.03125 0.03125 0  0.0625 0.03125 0  0.09375 0.03125 0  0.125 0.03125 0  0.15625 0.03125 0  0.1875 0.03125 0  0.21875 0.03125 0  0.25 0.03125 0  0.28125 0.03125 0  0.3125 0.03125 0  0.34375 0.03125 0  0.375 0.03125 0  0.40625 0.03125 0  0.4375 0.03125 0  0.46875 0.03125 0  0.5 0.03125 0  0.53125 0.03125 0  0.5625 0.03125 0  0.59375 0.03125 0  0.625 0.03125 0  0.65625 0.03125 0  0.6875 0.03125 0  0.71875 0.03125 0  0.75 0.03125 0  0.78125 0.03125 0  0.8125 0.03125 0  0.84375 0.03125 0  0.875 0.03125 0  0.90625 0.03125 0  0.9375 0.03125 0  0.96875 0.03125 0  1 0.03125 0  0 0.0625 0  0.03125 0.0625 0  0.0625 0.0625 0  0.09375 0.0625 0  0.125 0.0625 0  0.15625 0.0625 0  0.1875 0.0625 0  0.21875 0.0625 0  0.25 0.0625 0  0.28125 0.0625 0  0.3125 0.0625 0  0.34375 0.0625 0  0.375 0.0625 0  0.40625 0.0625 0  0.4375 0.0625 0  0.46875 0.0625 0  0.5 0.0625 0  0.53125 0.0625 0  0.5625 0.0625 0  0.59375 0.0625 0  0.625 0.0625 0  0.65625 0.0625 0  0.6875 0.0625 0  0.71875 0.0625 0  0.75 0.0625 0  0.78125 0.0625 0  0.8125 0.0625 0  0.84375 0.0625 0  0.875 0.0625 0  0.90625 0.0625 0  0.9375 0.0625 0  0.96875 0.0625 0  1 0.0625 0  0 0.09375 0  0.03125 0.09375 0  0.0625 0.09375 0  0.09375 0.09375 0  0.125 0.09375 0  0.15625 0.09375 0  0.1875 0.09375 0  0.21875 0.09375 0  0.25 0.09375 0  0.28125 0.09375 0  0.3125 0.09375 0  0.34375 0.09375 0  0.375 0.09375 0  0.40625 0.09375 0  0.4375 0.09375 0  0.46875 0.09375 0  0.5 0.09375 0  0.53125 0.09375 0  0.5625 0.09375 0  0.59375 0.09375 0  0.625 0.09375 0  0.65625 0.09375 0  0.6875 0.09375 0  0.71875 0.09375 0  0.75 0.09375 0  0.78125 0.09375 0  0.8125 0.09375 0  0.84375 0.09375 0  0.875 0.09375 0  0.90625 0.09375 0  0.9375 0.09375 0  0.96875 0.09375 0  1 0.09375 0  0 0.125 0  0.03125 0.125 0  0.0625 0.125 0  0.09375 0.125 0  0.125 0.125 0  0.15625 0.125 0  0.1875 0.125 0  0.21875 0.125 0  0.25 0.125 0  0.28125 0.125 0  0.3125 0.125 0  0.34375 0.125 0  0.375 0.125 0  0.40625 0.125 0  0.4375 0.125 0  0.46875 0.125 0  0.5 0.125 0  0.53125 0.125 0  0.5625 0.125 0  0.59375 0.125 0  0.625 0.125 0  0.65625 0.125 0  0.6875 0.125 0  0.71875 0.125 0  0.75 0.125 0  0.78125 0.125 0  0.8125 0.125 0  0.84375 0.125 0  0.875 0.125 0  0.90625 0.125 0  0.9375 0.125 0  0.96875 0.125 0  1 0.125 0  0 0.15625 0  0.03125 0.15625 0  0.0625 0.15625 0  0.09375 0.15625 0  0.125 0.15625 0  0.15625 0.15625 0  0.1875 0.15625 0  0.21875 0.15625 0  0.25 0.15625 0  0.28125 0.15625 0  0.3125 0.15625 0  0.34375 0.15625 0  0.375 0.15625 0  0.40625 0.15625 0  0.4375 0.15625 0  0.46875 0.15625 0  0.5 0.15625 0  0.53125 0.15625 0  0.5625 0.15625 0  0.59375 0.15625 0  0.625 0.15625 0  0.65625 0.15625 0  0.6875 0.15625 0  0.71875 0.15625 0  0.75 0.15625 0  0.78125 0.15625 0  0.8125 0.15625 0  0.84375 0.15625 0  0.875 0.15625 0  0.90625 0.15625 0  0.9375 0.15625 0  0.96875 0.15625 0  1 0.15625 0  0 0.1875 0  0.03125 0.1875 0  0.0625 0.1875 0  0.09375 0.1875 0  0.125 0.1875 0  0.15625 0.1875 0  0.1875 0.1875 0  0.21875 0.1875 0  0.25 0.1875 0  0.28125 0.1875 0  0.3125 0.1875 0  0.34375 0.1875 0  0.375 0.1875 0  0.40625 0.1875 0  0.4375 0.1875 0  0.46875 0.1875 0  0.5 0.1875 0  0.53125 0.1875 0  0.5625 0.1875 0  0.59375 0.1875 0  0.625 0.1875 0  0.65625 0.1875 0  0.6875 0.1875 0  0.71875 0.1875 0  0.75 0.1875 0  0.78125 0.1875 0  0.8125 0.1875 0  0.84375 0.1875 0  0.875 0.1875 0  0.90625 0.1875 0  0.9375 0.1875 0  0.96875 0.1875 0  1 0.1875 0  0 0.21875 0  0.03125 0.21875 0  0.0625 0.21875 0  0.09375 0.21875 0  0.125 0.21875 0  0.15625 0.21875 0  0.1875 0.21875 0  0.21875 0.21875 0  0.25 0.21875 0  0.28125 0.21875 0  0.3125 0.21875 0  0.34375 0.21875 0  0.375 0.21875 0  0.40625 0.21875 0  0.4375 0.21875 0  0.46875 0.21875 0  0.5 0.21875 0  0.53125 0.21875 0  0.5625 0.21875 0  0.59375 0.21875 0  0.625 0.21875 0  0.65625 0.21875 0  0.6875 0.21875 0  0.71875 0.21875 0  0.75 0.21875 0  0.78125 0.21875 0  0.8125 0.21875 0  0.84375 0.21875 0  0.875 0.21875 0  0.90625 0.21875 0  0.9375 0.21875 0  0.96875 0.21875 0  1 0.21875 0  0 0.25 0  0.03125 0.25 0  0.0625 0.25 0  0.09375 0.25 0  0.125 0.25 0  0.15625 0.25 0  0.1875 0.25 0  0.21875 0.25 0  0.25 0.25 0  0.28125 0.25 0  0.3125 0.25 0  0.34375 0.25 0  0.375 0.25 0  0.40625 0.25 0  0.4375 0.25 0  0.46875 0.25 0  0.5 0.25 0  0.53125 0.25 0  0.5625 0.25 0  0.59375 0.25 0  0.625 0.25 0  0.65625 0.25 0  0.6875 0.25 0  0.71875 0.25 0  0.75 0.25 0  0.78125 0.25 0  0.8125 0.25 0  0.84375 0.25 0  0.875 0.25 0  0.90625 0.25 0  0.9375 0.25 0  0.96875 0.25 0  1 0.25 0  0 0.28125 0  0.03125 0.28125 0  0.0625 0.28125 0  0.09375 0.28125 0  0.125 0.28125 0  0.15625 0.28125 0  0.1875 0.28125 0  0.21875 0.28125 0  0.25 0.28125 0  0.28125 0.28125 0  0.3125 0.28125 0  0.34375 0.28125 0  0.375 0.28125 0  0.40625 0.28125 0  0.4375 0.28125 0  0.46875 0.28125 0  0.5 0.28125 0  0.53125 0.28125 0  0.5625 0.28125 0  0.59375 0.28125 0  0.625 0.28125 0  0.65625 0.28125 0  0.6875 0.28125 0  0.71875 0.28125 0  0.75 0.28125 0  0.78125 0.28125 0  0.8125 0.28125 0  0.84375 0.28125 0  0.875 0.28125 0  0.90625 0.28125 0  0.9375 0.28125 0  0.96875 0.28125 0  1 0.28125 0  0 0.3125 0  0.03125 0.3125 0  0.0625 0.3125 0  0.09375 0.3125 0  0.125 0.3125 0  0.15625 0.3125 0  0.1875 0.3125 0  0.21875 0.3125 0  0.25 0.3125 0  0.28125 0.3125 0  0.3125 0.3125 0  0.34375 0.3125 0  0.375 0.3125 0  0.40625 0.3125 0  0.4375 0.3125 0  0.46875 0.3125 0  0.5 0.3125 0  0.53125 0.3125 0  0.5625 0.3125 0  0.59375 0.3125 0  0.625 0.3125 0  0.65625 0.3125 0  0.6875 0.3125 0  0.71875 0.3125 0  0.75 0.3125 0  0.78125 0.3125 0  0.8125 0.3125 0  0.84375 0.3125 0  0.875 0.3125 0  0.90625 0.3125 0  0.9375 0.3125 0  0.96875 0.3125 0  1 0.3125 0  0 0.34375 0  0.03125 0.34375 0  0.0625 0.34375 0  0.09375 0.34375 0  0.125 0.34375 0  0.15625 0.34375 0  0.1875 0.34375 0  0.21875 0.34375 0  0.25 0.34375 0  0.28125 0.34375 0  0.3125 0.34375 0  0.34375 0.34375 0  0.375 0.34375 0  0.40625 0.34375 0  0.4375 0.34375 0  0.46875 0.34375 0  0.5 0.34375 0  0.53125 0.34375 0  0.5625 0.34375 0  0.59375 0.34375 0  0.625 0.34375 0  0.65625 0.34375 0  0.6875 0.34375 0  0.71875 0.34375 0  0.75 0.34375 0  0.78125 0.34375 0  0.8125 0.34375 0  0.84375 0.34375 0  0.875 0.34375 0  0.90625 0.34375 0  0.9375 0.34375 0  0.96875 0.34375 0  1 0.34375 0  0 0.375 0  0.03125 0.375 0  0.0625 0.375 0  0.09375 0.375 0  0.125 0.375 0  0.15625 0.375 0  0.1875 0.375 0  0.21875 0.375 0  0.25 0.375 0  0.28125 0.375 0  0.3125 0.375 0  0.34375 0.375 0  0.375 0.375 0  0.40625 0.375 0  0.4375 0.375 0  0.46875 0.375 0  0.5 0.375 0  0.53125 0.375 0  0.5625 0.375 0  0.59375 0.375 0  0.625 0.375 0  0.65625 0.375 0  0.6875 0.375 0  0.71875 0.375 0  0.75 0.375 0  0.78125 0.375 0  0.8125 0.375 0  0.84375 0.375 0  0.875 0.375 0  0.90625 0.375 0  0.9375 0.375 0  0.96875 0.375 0  1 0.375 0  0 0.40625 0  0.03125 0.40625 0  0.0625 0.40625 0  0.09375 0.40625 0  0.125 0.40625 0  0.15625 0.40625 0  0.1875 0.40625 0  0.21875 0.40625 0  0.25 0.40625 0  0.28125 0.40625 0  0.3125 0.40625 0  0.34375 0.40625 0  0.375 0.40625 0  0.40625 0.40625 0  0.4375 0.40625 0  0.46875 0.40625 0  0.5 0.40625 0  0.53125 0.40625 0  0.5625 0.40625 0  0.59375 0.40625 0  0.625 0.40625 0  0.65625 0.40625 0  0.6875 0.40625 0  0.71875 0.40625 0  0.75 0.40625 0  0.78125 0.40625 0  0.8125 0.40625 0  0.84375 0.40625 0  0.875 0.40625 0  0.90625 0.40625 0  0.9375 0.40625 0  0.96875 0.40625 0  1 0.40625 0  0 0.4375 0  0.03125 0.4375 0  0.0625 0.4375 0  0.09375 0.4375 0  0.125 0.4375 0  0.15625 0.4375 0  0.1875 0.4375 0  0.21875 0.4375 0  0.25 0.4375 0  0.28125 0.4375 0  0.3125 0.4375 0  0.34375 0.4375 0  0.375 0.4375 0  0.40625 0.4375 0  0.4375 0.4375 0  0.46875 0.4375 0  0.5 0.4375 0  0.53125 0.4375 0  0.5625 0.4375 0  0.59375 0.4375 0  0.625 0.4375 0  0.65625 0.4375 0  0.6875 0.4375 0  0.71875 0.4375 0  0.75 0.4375 0  0.78125 0.4375 0  0.8125 0.4375 0  0.84375 0.4375 0  0.875 0.4375 0  0.90625 0.4375 0  0.9375 0.4375 0  0.96875 0.4375 0  1 0.4375 0  0 0.46875 0  0.03125 0.46875 0  0.0625 0.46875 0  0.09375 0.46875 0  0.125 0.46875 0  0.15625 0.46875 0  0.1875 0.46875 0  0.21875 0.46875 0  0.25 0.46875 0  0.28125 0.46875 0  0.3125 0.46875 0  0.34375 0.46875 0  0.375 0.46875 0  0.40625 0.46875 0  0.4375 0.46875 0  0.46875 0.46875 0  0.5 0.46875 0  0.53125 0.46875 0  0.5625 0.46875 0  0.59375 0.46875 0  0.625 0.46875 0  0.65625 0.46875 0  0.6875 0.46875 0  0.71875 0.46875 0  0.75 0.46875 0  0.78125 0.46875 0  0.8125 0.46875 0  0.84375 0.46875 0  0.875 0.46875 0  0.90625 0.46875 0  0.9375 0.46875 0  0.96875 0.46875 0  1 0.46875 0  0 0.5 0  0.03125 0.5 0  0.0625 0.5 0  0.09375 0.5 0  0.125 0.5 0  0.15625 0.5 0  0.1875 0.5 0  0.21875 0.5 0  0.25 0.5 0  0.28125 0.5 0  0.3125 0.5 0  0.34375 0.5 0  0.375 0.5 0  0.40625 0.5 0  0.4375 0.5 0  0.46875 0.5 0  0.5 0.5 0  0.53125 0.5 0  0.5625 0.5 0  0.59375 0.5 0  0.625 0.5 0  0.65625 0.5 0  0.6875 0.5 0  0.71875 0.5 0  0.75 0.5 0  0.78125 0.5 0  0.8125 0.5 0  0.84375 0.5 0  0.875 0.5 0  0.90625 0.5 0  0.9375 0.5 0  0.96875 0.5 0  1 0.5 0  0 0.53125 0  0.03125 0.53125 0  0.0625 0.53125 0  0.09375 0.53125 0  0.125 0.53125 0  0.15625 0.53125 0  0.1875 0.53125 0  0.21875 0.53125 0  0.25 0.53125 0  0.28125 0.53125 0  0.3125 0.53125 0  0.34375 0.53125 0  0.375 0.53125 0  0.40625 0.53125 0  0.4375 0.53125 0  0.46875 0.53125 0  0.5 0.53125 0  0.53125 0.53125 0  0.5625 0.53125 0  0.59375 0.53125 0  0.625 0.53125 0  0.65625 0.53125 0  0.6875 0.53125 0  0.71875 0.53125 0  0.75 0.53125 0  0.78125 0.531
[...]
<CellData  Scalars="f_40607"> 
<DataArray  type="Float64"  Name="f_40607"  format="ascii">1.6327418250221230e-07   1.6010973520110588e-07   3.7313957740994597e-07   4.8630426881798261e-07   6.7568442937921707e-07   9.8920667195400108e-07   1.0592339203550463e-06   1.6635954559460180e-06   1.5089959684351239e-06   2.4833665834020817e-06   2.0076437352025658e-06   3.4168834458359917e-06   2.5359844614383449e-06   4.4281808005164352e-06   3.0736967449965257e-06   5.4783407969607123e-06   3.6001098556279690e-06   6.5269827816690760e-06   4.0949960029889689e-06   7.5338089504213136e-06   4.5393455512038246e-06   8.4601467995830557e-06   4.9160956084638899e-06   9.2704295119379105e-06   5.2107840871599373e-06   9.9335576607555773e-06   5.4121041213661065e-06   1.0424090034900068e-05   5.5123375161492809e-06   1.0723217848610833e-05   5.5076505293855789e-06   1.0819484855737305e-05   5.3982405671949825e-06   1.0709225614335249e-05   5.1883281002337064e-06   1.0396704962266399e-05   4.8859940568831842e-06   9.8939532434543489e-06   4.5028688892343857e-06   9.2203035211123843e-06   4.0536852085102920e-06   8.4016484729295558e-06   3.5557111267589250e-06   7.4694454390360008e-06   3.0280860173657432e-06   6.4595077670562951e-06   2.4910841379981128e-06   5.4106287917015282e-06   1.9653342937470765e-06   4.3630911751754168e-06   1.4710253290993750e-06   3.3571186570993115e-06   1.0271276033247716e-06   2.4313293197256210e-06   6.5065952461082478e-07   1.6212491113954439e-06   3.5602507950810890e-07   9.5794141784437471e-07   1.5444059054654597e-07   4.6680256539596880e-07   5.3443917018667040e-08   1.6656328597240265e-07   4.1866970962042039e-08   6.8520708784291888e-08   7.8546663802281762e-07   6.6093249734752802e-07   1.2856275526925799e-06   1.2793433037392319e-06   1.9515635668343163e-06   1.9442351838621036e-06   2.7574209097820448e-06   2.7501661309378121e-06   3.6720916260905307e-06   3.6660034301135347e-06   4.6603455473906578e-06   4.6564576754824201e-06   5.6841663532923364e-06   5.6834181114981416e-06   6.7042029076931031e-06   6.7074055786646914e-06   7.6812738658796369e-06   7.6890806972565692e-06   8.5778665515490967e-06   8.5907481795337088e-06   9.3595724281341307e-06   9.3777990761542445e-06   9.9964041116574542e-06   1.0020035437638418e-05   1.0463943379502508e-05   1.0492826454850486e-05   1.0744276047099991e-05   1.0778051597449425e-05   1.0826677717229749e-05   1.0864794420079610e-05   1.0708023947737483e-05   1.0749760264178374e-05   1.0392908962061070e-05   1.0437401684669513e-05   9.8934682282075474e-06   9.9397466649241246e-06   9.2289116197093831e-06   9.2759361125670319e-06   8.4247850026178163e-06   8.4714883094485734e-06   7.5119885334067766e-06   7.5573184860905385e-06   6.5255892970089577e-06   6.5685510968198903e-06   5.5034737965588555e-06   5.5431703195623428e-06   4.4848919145906650e-06   4.5205604824720692e-06   3.5089480480574396e-06   3.5399922829505905e-06   2.6130969881038946e-06   2.6391126421592665e-06   1.8317016297972967e-06   1.8524957421815904e-06   1.1947066242295805e-06   1.2103102335558677e-06   7.2647641421160931e-07   7.3715296260505782e-07   4.4483744310421427e-07   4.5109363216725215e-07   3.6035522315552395e-07   3.6297163938820234e-07   3.5624865831421357e-07   4.7601371406140604e-07   1.8628595493317456e-06   1.5327176679957899e-06   2.5245485653539133e-06   2.5186408314265568e-06   3.3161112323072913e-06   3.3098495460749421e-06   4.2068437711798960e-06   4.2011209939055482e-06   5.1623878463315728e-06   5.1580534672971100e-06   6.1459709381101528e-06   6.1438053242024678e-06   7.1197889059931062e-06   7.1204791537005063e-06   8.0464428599405736e-06   8.0505601189848266e-06   8.8903659171449811e-06   8.8983456056973014e-06   9.6191822217571102e-06   9.6313084107995688e-06   1.0204945075029344e-05   1.0221340059621635e-05   1.0625206212898344e-05   1.0645825985013636e-05   1.0863874920408750e-05   1.0888510931417588e-05   1.0911833794092761e-05   1.0940121076775190e-05   1.0767287328818535e-05   1.0798718751386835e-05   1.0435829782806298e-05   1.0469775936383628e-05   9.9302295755808847e-06   9.9659635562517538e-06   9.2699383815473325e-06   9.3066645241019428e-06   8.4803436748385370e-06   8.5172291325801885e-06   7.5917933470555861e-06   7.6280012957952824e-06   6.6384297758414374e-06   6.6731529541488746e-06   5.6568780271701198e-06   5.6893713127748092e-06   4.6848384416186623e-06   4.7144492087810812e-06   3.7596374638005762e-06   3.7858325729519602e-06   2.9167920763546597e-06   2.9391805252360856e-06   2.1886425272267942e-06   2.2069930634145576e-06   1.6031052110117724e-06   1.6173586192207583e-06   1.1825927292824778e-06   1.1928691681610769e-06   9.4314180370243843e-07   9.4974463322850112e-07   8.9378394828404596e-07   8.9720263883897502e-07   1.0361994171577288e-06   1.0371096817268801e-06   1.0411531073162384e-06   1.3639706961435678e-06   3.3719497657701726e-06   2.7445729526515285e-06   4.1652634308403044e-06   4.1598586374231145e-06   5.0418859751320131e-06   5.0366304667282581e-06   5.9678730942578217e-06   5.9634476734263311e-06   6.9075309704218375e-06   6.9045722155772848e-06   7.8247238109769987e-06   7.8238000600555079e-06   8.6842268449389277e-06   8.6858215890920227e-06   9.4530598744016750e-06   9.4575570698886831e-06   1.0101742118081743e-05   1.0109413589868402e-05   1.0605416656543126e-05   1.0616412578249246e-05   1.0944799764068053e-05   1.0959143072913291e-05   1.1106917887110249e-05   1.1124503217596144e-05   1.1085603484706323e-05   1.1106200919269628e-05   1.0881730348567441e-05   1.0904994008504507e-05   1.0503179108035880e-05   1.0528660354078253e-05   9.9645340446214658e-06   9.9916988309050765e-06   9.2865227039728180e-06   9.3147724365696065e-06   8.4952197046371796e-06   8.5239147997049743e-06   7.6210452214344584e-06   7.6495304417186566e-06   6.6975965155974973e-06   6.7252270900635404e-06   5.7603572879971184e-06   5.7865247901997828e-06   4.8453342961245773e-06   4.8694912747186397e-06   3.9876734172954336e-06   4.0093558393998704e-06   3.2203080520221617e-06   3.2391547402115918e-06   2.5726914162237134e-06   2.5884598393710525e-06   2.0696609364238494e-06   2.0822389637025191e-06   1.7304778277166523e-06   1.7398913862020584e-06   1.5680784196957201e-06   1.5744953824455509e-06   1.5885669334781229e-06   1.5922977100323248e-06   1.7909750897099481e-06   1.7924686852550554e-06   2.1673194350555457e-06   2.1671438539483056e-06   2.0839245846668689e-06   2.7017719930214567e-06   5.2573577946182932e-06   4.2518327689953424e-06   6.1470754751113002e-06   6.1422495761897740e-06   7.0646345100264174e-06   7.0603148853521951e-06   7.9745903329238494e-06   7.9712667596915715e-06   8.8419031040834753e-06   8.8400285783824279e-06   9.6332482121717032e-06   9.6332168048054935e-06   1.0318265093034448e-05   1.0320399238921476e-05   1.0870702753140168e-05   1.0875243560310277e-05   1.1269415030183448e-05   1.1276514457181384e-05   1.1499164593613756e-05   1.1508879908503097e-05   1.1551203060495710e-05   1.1563494230697110e-05   1.1423603898608004e-05   1.1438334398762571e-05   1.1121334663583146e-05   1.1138275943455581e-05   1.0656065340891234e-05   1.0674904952837086e-05   1.0045719831139556e-05   1.0066072998393769e-05   9.3137875720381105e-06   9.3352117920638311e-06   8.4884215652715699e-06   8.5104336897588877e-06   7.6013573214542793e-06   7.6234524378981625e-06   6.6866941357825046e-06   6.7083654964704635e-06   5.7795853960496544e-06   5.8003445998473555e-06   4.9148880986787402e-06   4.9342847304998187e-06   4.1258232726646897e-06   4.1434632462282475e-06   3.4426985268509395e-06   3.4582604599433006e-06   2.8917414654551986e-06   2.9049905448078574e-06   2.4940883702511571e-06   2.5048873360708697e-06   2.2649665382376841e-06   2.2732836288042910e-06   2.2131013470848362e-06   2.2190152516154984e-06   2.3403711055791230e-06   2.3440730167378014e-06   2.6417251263764341e-06   2.6435173156466194e-06   3.1053749980960562e-06   3.1056624578279995e-06   3.7132665466050145e-06   3.7125305182284304e-06   3.4466380420888795e-06   4.4405610946871512e-06   7.4484576146430688e-06   5.9978858850960698e-06   8.3953933763840827e-06   8.3912029740128836e-06   9.3079522183673181e-06   9.3045083100757369e-06   1.0150974003253420e-05   1.0148602459282277e-05   1.0892046593438744e-05   1.0891045373595056e-05   1.1502735244739226e-05   1.1503356973746911e-05   1.1959651548541775e-05   1.1962093280457728e-05   1.2245333182249035e-05   1.2249729402131384e-05   1.2348902058309096e-05   1.2355319540623649e-05   1.2266474312745146e-05   1.2274908828089142e-05   1.2001304933145390e-05   1.2011680195710582e-05   1.1563660358741660e-05   1.1575829576762634e-05   1.0970423166762094e-05   1.0984173381471173e-05   1.0244443491453440e-05   1.0259502688084870e-05   9.4136617166541777e-06   9.4297085065177818e-06   8.5100358820069687e-06   8.5267114010499794e-06   7.5683148193960935e-06   7.5852363694396744e-06   6.6247040066663496e-06   6.6414798814402166e-06   5.7154752645023386e-06   5.7317201536395432e-06   4.8755735723443644e-06   4.8909239229026731e-06   4.1372743587512798e-06   4.1514030955806628e-06   3.5289426291178673e-06   3.5415726930232765e-06   3.0739413099694344e-06   3.0848575658411410e-06   2.7897303793753118e-06   2.7987895728747700e-06   2.6871909699806626e-06   2.6943295616854180e-06   2.7702000266208837e-06   2.7754398768425390e-06   3.0354717495264406e-06   3.0389236815334030e-06   3.4726725915529414e-06   3.4745376128589842e-06   4.0648077624752825e-06   4.0653747164547900e-06   4.7888694155180866e-06   4.7885054038951378e-06   5.6167279606421938e-06   5.6158542094197575e-06   5.0784738126868336e-06   6.5152754366850298e-06   9.8622569100119679e-06   7.9164854276252798e-06   1.0824804569140702e-05   1.0821302490971582e-05   1.1686426421043988e-05   1.1683817867457952e-05   1.2414015392245802e-05   1.2412489841973897e-05   1.2979660959275005e-05   1.2979388944787414e-05   1.3361714593415644e-05   1.3362836044240153e-05   1.3545605534320136e-05   1.3548221688227688e-05   1.3524385687953917e-05   1.3528553441788861e-05   1.3298985828498977e-05   1.3304713759366078e-05   1.2878173204320801e-05   1.2885419186773091e-05   1.2278211228742981e-05   1.2286881873294801e-05   1.1522233342482539e-05   1.1532185494583419e-05   1.0639354312878449e-05   1.0650398731027662e-05   9.6635525368909362e-06   9.6754597105708423e-06   8.6323658856804601e-06   8.6448738047589274e-06   7.5854509162931690e-06   7.5982744815427116e-06   6.5630606066249243e-06   6.5759022814164202e-06   5.6044989446751546e-06   5.6170601914755447e-06   4.7466116055745459e-06   4.7586046267869886e-06   4.0223705485179387e-06   4.0335298588545877e-06   3.4596067183454292e-06   3.4697001141818866e-06   3.0799392877030372e-06   3.0887778467805327e-06   2.8979422558255864e-06   2.9053890951108496e-06   2.9205800405675109e-06   2.9265576733387964e-06   3.1469333516960924e-06   3.1514295977553642e-06   3.5682255822849515e-06   3.5712980531762430e-06   4.1681487387390705e-06   4.1699278498699742e-06   4.9234771160771020e-06   4.9241672010004457e-06   5.8049469462711335e-06   5.8048241439955829e-06   6.7783709071890008e-06   6.7777750475219590e-06   7.8059459271537724e-06   7.8052626901211262e-06   6.9177698444441667e-06   8.8473301691375324e-06   1.2406744823387157e-05   9.9344171154935191e-06   1.3342523503038211e-05   1.3339765411452744e-05   1.4109081590682312e-05   1.4107289611784603e-05   1.4677056916279534e-05   1.4676309199846316e-05   1.5024740862981009e-05   1.5025106099580537e-05   1.5138908057650445e-05   1.5140438731277610e-05   1.5015313978036398e-05   1.5018040088129093e-05   1.4658847436707153e-05   1.4662771434025544e-05   1.4083334908865498e-05   1.4088427909974491e-05   1.3311004686692396e-05   1.3317204083875882e-05   1.2371630907164803e-05   1.2378839559687039e-05   1.1301389552729203e-05   1.1309476715406834e-05   1.0141469660928799e-05   1.0150273704887503e-05   8.9364925454808270e-06   8.9458254012069777e-06   7.7327993646865394e-06   7.7424525014989036e-06   6.5766725527741488e-06   6.5864242168943278e-06   5.5125592509361804e-06   5.5221826220272102e-06   4.5813648395200544e-06   4.5906367333248031e-06   3.8188819871578513e-06   3.8275917285868880e-06   3.2544154048190412e-06   3.2623735199378294e-06   2.9096549296127671e-06   2.9167013543151488e-06   2.7978399629754051e-06   2.8038515377618873e-06   2.9232470324969248e-06   2.9281441407163616e-06   3.2810197906974173e-06   3.2847720896068747e-06   3.8573476222133495e-06   3.8599788878642562e-06   4.6299857619108205e-06   4.6315778749108372e-06   5.5690970012974163e-06   5.5697929674272265e-06   6.6383831937660542e-06   6.6383887292499195e-06   7.7964641702675007e-06   7.7960467462105041e-06   8.9984522103457033e-06   8.9979357658152030e-06   1.0197661170119028e-05   1.0197414829126074e-05   8.8945100641890376e-06   1.1347801872725594e-05   1.4984561188986299e-05   1.1974413840030294e-05   1.5852086284867397e-05   1.5850132298333769e-05   1.6482998845143832e-05   1.6482023262312143e-05   1.6853233760763943e-05   1.6853225494657834e-05   1.6948746180176107e-05   1.6949694950567304e-05   1.6766046697119240e-05   1.6767939544839814e-05   1.6312328525830935e-05   1.6315144714123879e-05   1.5605184528103766e-05   1.5608890529062838e-05   1.4671926679109223e-05   1.4676471991654158e-05   1.3548534521360834e-05   1.3553848712701481e-05   1.2278272661732680e-05   1.2284263865090437e-05   1.0910029817762812e-05   1.0916584803666976e-05   9.4964426237204028e-06   9.5034284489125080e-06   8.0918757901708610e-06   8.0991429208215906e-06   6.7503358600796902e-06   6.7577225763155599e-06   5.5233984633090209e-06   5.5307362870962639e-06   4.4582285238827186e-06   4.4653483748184928e-06   3.5957693369912980e-06   3.6025081097884635e-06   2.9691699451378830e-06   2.9753772167348509e-06   2.6025110601434043e-06   2.6080556709111597e-06   2.5098782602073162e-06   2.5146545694538941e-06   2.6948177913311148e-06   2.6987514775129546e-06   3.1501955495318547e-06   3.1532489022235365e-06   3.8584643026497580e-06   3.8606410220777660e-06   4.7923285539344116e-06   4.7936781108010077e-06   5.9157812895349635e-06   5.9164028662104375e-06   7.1854727940062488e-06   7.1855186819463395e-06   8.5523592760795243e-06   8.5520373091286670e-06   9.9635685653759894e-06   9.9631427573845957e-06   1.1364411748968783e-05   1.1364199974375958e-05   1.2700463347283993e-05   1.2700831137916451e-05   1.0933120695793155e-05   1.3920979851925852e-05   1.7496843583153123e-05   1.3958204108573610e-05   1.8257155974304356e-05   1.8256069200491653e-05   1.8716977743922035e-05   1.8716831656036587e-05   1.8858893353082097e-05   1.8859607097842481e-05   1.8677689486838735e-05   1.8679193875836553e-05   1.8180550421278081e-05   1.8182786031504831e-05   1.7386777712433786e-05   1.7389690173069621e-05   1.6327045504322103e-05   1.6330580077216063e-05   1.5042220609017032e-05   1.5046317249733792e-05   1.3581792737138365e-05   1.3586382267982065e-05   1.2001974853491008e-05   1.2006976554617445e-05   1.0363546146056375e-05   1.0368866869578945e-05   8.7295199920603855e-06   8.7350547641447048e-06   7.1627261160890413e-06   7.1683600901798316e-06   5.7233995370300921e-06   5.7290110907161773e-06   4.4668687277855469e-06   4.4723334538190890e-06   3.4414316562609677e-06   3.4466269827887207e-06   2.6865011800233680e-06   2.6913113632353022e-06   2.2310909097289731e-06   2.2354121708576527e-06   2.0926995421455005e-06   2.0964451664996686e-06   2.2766363045080355e-06   2.2797415788898515e-06   2.7758131490752571e-06   2.7782400795936707e-06   3.5710113577613515e-06   3.5727531738282324e-06   4.6316119712453179e-06   4.6326974694239474e-06   5.9167616681233722e-06   5.9172594612359481e-06   7.3769290916897434e-06   7.3769517779855835e-06   8.9557918015696704e-06   8.9554999300756557e-06   1.0592381563640651e-05   1.0591987035534867e-05   1.2223406010220015e-05   1.2223174254289917e-05   1.3785658139790897e-05   1.3785908127980890e-05   1.5218421997179140e-05   1.5219523147251386e-05   1.2955460419582855e-05   1.6468149082928689e-05   1.9847106982444040e-05   1.5809579834831446e-05   2.0465297792645830e-05   2.0465140999391871e-05   2.0725106761600837e-05   2.0725810380772309e-05   2.0616867840918930e-05   2.0618298593476609e-05   2.0145028169526263e-05   2.0147075456839079e-05   1.9327972252075205e-05   1.9330546435042528e-05   1.8197313558893391e-05   1.8200340857305033e-05   1.6796679899874912e-05   1.6800096171251777e-05   1.5180038829450238e-05   1.5183783656263908e-05   1.3409627043713194e-05   1.3413638917333711e-05   1.1553562894748543e-05   1.1557775858284406e-05   9.6832333094206064e-06   9.6875751552767705e-06   7.8705551164542764e-06   7.8749470684513142e-06   6.1852156950855405e-06   6.1895734036135002e-06   4.6919987399865731e-06   4.6962343623192822e-06   3.4482977349407649e-06   3.4523228502707681e-06   2.5019125546767981e-06   2.5056416673538216e-06   1.8892137443986549e-06   1.8925681535620598e-06   1.6337448807746128e-06   1.6366567355059385e-06   1.7453165466211048e-06   1.7477329582921054e-06   2.2196265110278416e-06   2.2215136538986203e-06   3.0384204360222050e-06   3.0397676268536603e-06   4.1701866224601145e-06   4.1710104212153767e-06   5.5713577773934665e-06   5.5717061815651046e-06   7.1879733391509197e-06   7.1879301377853221e-06   8.9577382979624193e-06   8.9574275895761213e-06   1.0812399385930787e-05   1.0811990130756644e-05   1.2680347566087074e-05   1.2680057829458013e-05   1.4489347408767765e-05   1.4489447662783263e-05   1.6169289622161723e-05   1.6170104113729200e-05   1.7654863000612183e-05   1.7656767879728412e-05   1.4883889941506745e-05   1.8891463275726679e-05   2.1945011156648465e-05   1.7457369054985867e-05   2.2391584281996733e-05   2.2392415628654294e-05   2.2430111244059836e-05   2.2431685782063070e-05   2.2059479608480196e-05   2.2061627251435957e-05   2.1294255042784170e-05   2.1296839050830074e-05   2.0164117499395080e-05   2.0167031855842351e-05   1.8712721080456965e-05   1.8715884363068260e-05   1.6996019655184474e-05   1.6999367705437568e-05   1.5080121464088912e-05   1.5083600391304928e-05   1.3038754392539236e-05   1.3042314772861388e-05   1.0950438754176246e-05   1.0954031403938812e-05   8.8954757914985989e-06   8.8990491879205000e-06   6.9528672889478204e-06   6.9563665278406635e-06   5.1972844357007289e-06   5.2006515160742508e-06   3.6962022594798350e-06   3.6993774413419441e-06   2.5073096413179281e-06   2.5102336177506546e-06   1.6762943536443296e-06   1.6789109995369608e-06   1.2350881476126773e-06   1.2373476468020659e-06   1.2006392087299132e-06   1.2025014125498641e-06   1.5742589900075170e-06   1.5756969179005059e-06   2.3415683081354541e-06   2.3425717597225733e-06   3.4730445115321449e-06   3.4736238128409293e-06   4.9251483990606691e-06   4.9253383452921922e-06   6.6419872883783007e-06   6.6418513609098773e-06   8.5574500759560927e-06   8.5570849891425508e-06   1.0597732104217632e-05   1.0597272663214454e-05   1.2684152868655759e-05   1.2683776977805002e-05   1.4736158660468497e-05   1.4736092096631745e-05   1.6674395638156161e-05   1.6674915871250303e-05   1.8423736951407142e-05   1.8425174810935117e-05   1.9916150543471871e-05   1.9918887999289645e-05   1.6644305704633959e-05   2.1097763865685347e-05   2.3709875360386901e-05   1.8838202724886928e-05   2.3961896450576578e-05   2.3963764982296476e-05   2.3766355057524694e-05   2.3768817187761389e-05   2.3131169045810694e-05   2.3134032052280246e-05   2.2081092037703557e-05   2.2084206375888896e-05   2.0656759753444226e-05   2.0660014751353980e-05   1.8913131375756746e-05   1.8916447612199167e-05   1.6917383532322872e-05   1.6920704200825332e-05   1.4746336249590425e-05   1.4749619066145959e-05   1.2483508761593749e-05   1.2486719275605392e-05   1.0215917653453896e-05   1.0219024314496532e-05   8.0307399626664675e-06   8.0337109700264406e-06   6.0119692138587476e-06   6.0147709869045422e-06   4.2371927455511001e-06   4.2397897595939914e-06   2.77461409