<?xml version="1.0"?>
<VTKFile type="UnstructuredGrid"  version="0.1"  >
<UnstructuredGrid>
<Piece  NumberOfPoints="81" NumberOfCells="128">
<Points>
<DataArray  type="Float64"  NumberOfComponents="3"  format="ascii">0 0 0  0.125 0 0  0.25 0 0  0.375 0 0  0.5 0 0  0.625 0 0  0.75 0 0  0.875 0 0  1 0 0  0 0.125 0  0.125 0.125 0  0.25 0.125 0  0.375 0.125 0  0.5 0.125 0  0.625 0.125 0  0.75 0.125 0  0.875 0.125 0  1 0.125 0  0 0.25 0  0.125 0.25 0  0.25 0.25 0  0.375 0.25 0  0.5 0.25 0  0.625 0.25 0  0.75 0.25 0  0.875 0.25 0  1 0.25 0  0 0.375 0  0.125 0.375 0  0.25 0.375 0  0.375 0.375 0  0.5 0.375 0  0.625 0.375 0  0.75 0.375 0  0.875 0.375 0  1 0.375 0  0 0.5 0  0.125 0.5 0  0.25 0.5 0  0.375 0.5 0  0.5 0.5 0  0.625 0.5 0  0.75 0.5 0  0.875 0.5 0  1 0.5 0  0 0.625 0  0.125 0.625 0  0.25 0.625 0  0.375 0.625 0  0.5 0.625 0  0.625 0.625 0  0.75 0.625 0  0.875 0.625 0  1 0.625 0  0 0.75 0  0.125 0.75 0  0.25 0.75 0  0.375 0.75 0  0.5 0.75 0  0.625 0.75 0  0.75 0.75 0  0.875 0.75 0  1 0.75 0  0 0.875 0  0.125 0.875 0  0.25 0.875 0  0.375 0.875 0  0.5 0.875 0  0.625 0.875 0  0.75 0.875 0  0.875 0.875 0  1 0.875 0  0 1 0  0.125 1 0  0.25 1 0  0.375 1 0  0.5 1 0  0.625 1 0  0.75 1 0  0.875 1 0  1 1 0  </DataArray>
</Points>
<Cells>
<DataArray  type="UInt32"  Name="connectivity"  format="ascii">0 1 10  0 9 10  1 2 11  1 10 11  2 3 12  2 11 12  3 4 13  3 12 13  4 5 14  4 13 14  5 6 15  5 14 15  6 7 16  6 15 16  7 8 17  7 16 17  9 10 19  9 18 19  10 11 20  10 19 20  11 12 21  11 20 21  12 13 22  12 21 22  13 14 23  13 22 23  14 15 24  14 23 24  15 16 25  15 24 25  16 17 26  16 25 26  18 19 28  18 27 28  19 20 29  19 28 29  20 21 30  20 29 30  21 22 31  21 30 31  22 23 32  22 31 32  23 24 33  23 32 33  24 25 34  24 33 34  25 26 35  25 34 35  27 28 37  27 36 37  28 29 38  28 37 38  29 30 39  29 38 39  30 31 40  30 39 40  31 32 41  31 40 41  32 33 42  32 41 42  33 34 43  33 42 43  34 35 44  34 43 44  36 37 46  36 45 46  37 38 47  37 46 47  38 39 48  38 47 48  39 40 49  39 48 49  40 41 50  40 49 50  41 42 51  41 50 51  42 43 52  42 51 52  43 44 53  43 52 53  45 46 55  45 54 55  46 47 56  46 55 56  47 48 57  47 56 57  48 49 58  48 57 58  49 50 59  49 58 59  50 51 60  50 59 60  51 52 61  51 60 61  52 53 62  52 61 62  54 55 64  54 63 64  55 56 65  55 64 65  56 57 66  56 65 66  57 58 67  57 66 67  58 59 68  58 67 68  59 60 69  59 68 69  60 61 70  60 69 70  61 62 71  61 70 71  63 64 73  63 72 73  64 65 74  64 73 74  65 66 75  65 74 75  66 67 76  66 75 76  67 68 77  67 76 77  68 69 78  68 77 78  69 70 79  69 78 79  70 71 80  70 79 80  </DataArray>
<DataArray  type="UInt32"  Name="offsets"  format="ascii">3 6 9 12 15 18 21 24 27 30 33 36 39 42 45 48 51 54 57 60 63 66 69 72 75 78 81 84 87 90 93 96 99 102 105 108 111 114 117 120 123 126 129 132 135 138 141 144 147 150 153 156 159 162 165 168 171 174 177 180 183 186 189 192 195 198 201 204 207 210 213 216 219 222 225 228 231 234 237 240 243 246 249 252 255 258 261 264 267 270 273 276 279 282 285 288 291 294 297 300 303 306 309 312 315 318 321 324 327 330 333 336 339 342 345 348 351 354 357 360 363 366 369 372 375 378 381 384 </DataArray>
<DataArray  type="UInt8"  Name="types"  format="ascii">5 5 5 5 5 5 5 5 5 5 5 5 5 5 5 5 5 5 5 5 5 5 5 5 5 5 5 5 5 5 5 5 5 5 5 5 5 5 5 5 5 5 5 5 5 5 5 5 5 5 5 5 5 5 5 5 5 5 5 5 5 5 5 5 5 5 5 5 5 5 5 5 5 5 5 5 5 5 5 5 5 5 5 5 5 5 5 5 5 5 5 5 5 5 5 5 5 5 5 5 5 5 5 5 5 5 5 5 5 5 5 5 5 5 5 5 5 5 5 5 5 5 5 5 5 5 5 5 </DataArray>
</Cells>
<CellData  Scalars="f_37602"> 
<DataArray  type="Float64"  Name="f_37602"  format="ascii">1.9226602399121554e-05   1.8586455717024773e-05   1.1172698610122362e-05   1.2909502461127568e-05   3.6294994102294463e-06   5.8454548985046595e-06   1.0108268454446351e-06   2.3390465487108011e-06   4.8537957451482953e-06   4.4546287668461673e-06   1.2915998069615569e-05   1.0956546602261993e-05   2.0488526767731737e-05   1.8034359980450092e-05   2.3059281829496685e-05   2.1577771491445303e-05   1.2023321374433572e-05   9.3104945777276633e-06   7.0387807743813514e-06   6.4050884419000527e-06   4.3526998047792114e-06   5.0969048670501632e-06   5.5821485166344723e-06   6.7573000355524848e-06   1.0010415164895015e-05   1.0401762190643927e-05   1.5042323526406556e-05   1.3894710245724148e-05   1.7694474534863265e-05   1.5188463676231316e-05   1.6221602353417270e-05   1.3549996083526396e-05   4.1189240032488418e-06   1.9366719952946533e-06   4.4330978598436574e-06   2.9928033548846324e-06   7.5855914039929065e-06   7.1596149737937199e-06   1.1778427539270341e-05   1.2302666129599233e-05   1.4553805293427149e-05   1.5404583951985010e-05   1.4282419159151026e-05   1.4647629849797689e-05   1.1100632565562167e-05   1.0475904656909147e-05   6.7095712798207213e-06   5.3250676009914227e-06   1.1491451793329583e-06   7.7175474960172938e-07   5.6115833827084336e-06   4.7140716390399423e-06   1.1794607251690648e-05   1.0872032455960884e-05   1.6107357698326776e-05   1.5766858658555843e-05   1.6022436466780859e-05   1.6545466466343679e-05   1.1589352062601564e-05   1.2751856190778664e-05   5.4041212653583915e-06   6.6084722844858930e-06   9.4121509180737930e-07   1.6696312805229658e-06   4.8599685903613822e-06   6.5005233938596532e-06   9.8699671308447675e-06   1.0561024757393827e-05   1.4501957108595994e-05   1.4055939166073407e-05   1.6038438708044435e-05   1.5118289219181333e-05   1.3579174292064620e-05   1.3155371659778405e-05   8.5656958548730686e-06   9.3161703024986982e-06   3.9522040541285632e-06   5.8470793348208631e-06   2.3305395987456289e-06   4.7197872258898333e-06   1.3075921573485722e-05   1.5775502857671499e-05   1.4710639167113518e-05   1.7102200514593397e-05   1.4119870391409015e-05   1.4840111149809129e-05   1.1611785295041979e-05   1.0735542886735820e-05   8.6544041093469041e-06   7.2197440145766569e-06   6.9800752033239776e-06   6.3509816868075287e-06   7.5955123472890910e-06   8.6353800828632637e-06   1.0069820412083315e-05   1.2686458762408365e-05   2.0976485750678383e-05   2.3172890319851220e-05   1.7293741092619308e-05   2.0459612853279886e-05   1.0872643585501581e-05   1.2739321960542898e-05   5.4206428610165186e-06   5.1774691293289843e-06   4.1294390251497108e-06   2.2237573971101521e-06   7.7565179103650646e-06   5.6131635321145919e-06   1.4200470973393954e-05   1.3364848844501887e-05   1.9623642332684592e-05   2.0931429269834024e-05   2.3956410004557041e-05   2.4188399808150016e-05   1.6140027529465864e-05   1.8707331264339556e-05   6.6721559759036617e-06   8.9461423474150345e-06   1.0628025871894482e-06   1.5864143057736256e-06   2.5983327997117697e-06   9.8211701243822708e-07   1.0383986570256627e-05   7.4960208572943487e-06   1.9887866871610449e-05   1.7312909817303544e-05   2.5360472390022405e-05   2.4659011676519258e-05   </DataArray> 
</CellData> 
</Piece>
</UnstructuredGrid>
</VTKFile>