<?xml version="1.0"?>
<VTKFile type="UnstructuredGrid"  version="0.1"  >
<UnstructuredGrid>
<Piece  NumberOfPoints="25" NumberOfCells="32">
<Points>
<DataArray  type="Float64"  NumberOfComponents="3"  format="ascii">0 0 0  0.25 0 0  0.5 0 0  0.75 0 0  1 0 0  0 0.25 0  0.25 0.25 0  0.5 0.25 0  0.75 0.25 0  1 0.25 0  0 0.5 0  0.25 0.5 0  0.5 0.5 0  0.75 0.5 0  1 0.5 0  0 0.75 0  0.25 0.75 0  0.5 0.75 0  0.75 0.75 0  1 0.75 0  0 1 0  0.25 1 0  0.5 1 0  0.75 1 0  1 1 0  </DataArray>
</Points>
<Cells>
<DataArray  type="UInt32"  Name="connectivity"  format="ascii">0 1 6  0 5 6  1 2 7  1 6 7  2 3 8  2 7 8  3 4 9  3 8 9  5 6 11  5 10 11  6 7 12  6 11 12  7 8 13  7 12 13  8 9 14  8 13 14  10 11 16  10 15 16  11 12 17  11 16 17  12 13 18  12 17 18  13 14 19  13 18 19  15 16 21  15 20 21  16 17 22  16 21 22  17 18 23  17 22 23  18 19 24  18 23 24  </DataArray>
<DataArray  type="UInt32"  Name="offsets"  format="ascii">3 6 9 12 15 18 21 24 27 30 33 36 39 42 45 48 51 54 57 60 63 66 69 72 75 78 81 84 87 90 93 96 </DataArray>
<DataArray  type="UInt8"  Name="types"  format="ascii">5 5 5 5 5 5 5 5 5 5 5 5 5 5 5 5 5 5 5 5 5 5 5 5 5 5 5 5 5 5 5 5 </DataArray>
</Cells>
<CellData  Scalars="f_36173"> 
<DataArray  type="Float64"  Name="f_36173"  format="ascii">1.5934478977813248e-35   1.5934478977813248e-35   5.6716296322341144e-35   5.6716296322341144e-35   2.7584934099296372e-35   2.7584934099296372e-35   8.6934337767479381e-36   8.6934337767479381e-36   1.5589667301572034e-35   1.5589667301572034e-35   2.7685802521305284e-34   2.7682108298964338e-34   6.8753358474761358e-35   6.8790300698170823e-35   1.8724318903764801e-35   1.8724318903764801e-35   1.0248220971435559e-34   1.0248220971435559e-34   5.3288606530556548e-35   5.3205486527885253e-35   1.7875873203437960e-34   1.7884185203705088e-34   3.4773735106991753e-35   3.4773735106991753e-35   1.1368336477285759e-34   1.1368336477285759e-34   3.4814371552742162e-35   3.4773735106991753e-35   5.5671412454943558e-35   5.5712048900693967e-35   1.5255304464004815e-35   1.5255304464004815e-35   </DataArray> 
</CellData> 
</Piece>
</UnstructuredGrid>
</VTKFile>