<?xml version="1.0"?>
<VTKFile type="UnstructuredGrid"  version="0.1"  >
<UnstructuredGrid>
<Piece  NumberOfPoints="1089" NumberOfCells="2048">
<Points>
<DataArray  type="Float64"  NumberOfComponents="3"  format="ascii">0 0 0  0.03125 0 0  0.0625 0 0  0.09375 0 0  0.125 0 0  0.15625 0 0  0.1875 0 0  0.21875 0 0  0.25 0 0  0.28125 0 0  0.3125 0 0  0.34375 0 0  0.375 0 0  0.40625 0 0  0.4375 0 0  0.46875 0 0  0.5 0 0  0.53125 0 0  0.5625 0 0  0.59375 0 0  0.625 0 0  0.65625 0 0  0.6875 0 0  0.71875 0 0  0.75 0 0  0.78125 0 0  0.8125 0 0  0.84375 0 0  0.875 0 0  0.90625 0 0  0.9375 0 0  0.96875 0 0  1 0 0  0 0.03125 0  0.03125 0.03125 0  0.0625 0.03125 0  0.09375 0.03125 0  0.125 0.03125 0  0.15625 0.03125 0  0.1875 0.03125 0  0.21875 0.03125 0  0.25 0.03125 0  0.28125 0.03125 0  0.3125 0.03125 0  0.34375 0.03125 0  0.375 0.03125 0  0.40625 0.03125 0  0.4375 0.03125 0  0.46875 0.03125 0  0.5 0.03125 0  0.53125 0.03125 0  0.5625 0.03125 0  0.59375 0.03125 0  0.625 0.03125 0  0.65625 0.03125 0  0.6875 0.03125 0  0.71875 0.03125 0  0.75 0.03125 0  0.78125 0.03125 0  0.8125 0.03125 0  0.84375 0.03125 0  0.875 0.03125 0  0.90625 0.03125 0  0.9375 0.03125 0  0.96875 0.03125 0  1 0.03125 0  0 0.0625 0  0.03125 0.0625 0  0.0625 0.0625 0  0.09375 0.0625 0  0.125 0.0625 0  0.15625 0.0625 0  0.1875 0.0625 0  0.21875 0.0625 0  0.25 0.0625 0  0.28125 0.0625 0  0.3125 0.0625 0  0.34375 0.0625 0  0.375 0.0625 0  0.40625 0.0625 0  0.4375 0.0625 0  0.46875 0.0625 0  0.5 0.0625 0  0.53125 0.0625 0  0.5625 0.0625 0  0.59375 0.0625 0  0.625 0.0625 0  0.65625 0.0625 0  0.6875 0.0625 0  0.71875 0.0625 0  0.75 0.0625 0  0.78125 0.0625 0  0.8125 0.0625 0  0.84375 0.0625 0  0.875 0.0625 0  0.90625 0.0625 0  0.9375 0.0625 0  0.96875 0.0625 0  1 0.0625 0  0 0.09375 0  0.03125 0.09375 0  0.0625 0.09375 0  0.09375 0.09375 0  0.125 0.09375 0  0.15625 0.09375 0  0.1875 0.09375 0  0.21875 0.09375 0  0.25 0.09375 0  0.28125 0.09375 0  0.3125 0.09375 0  0.34375 0.09375 0  0.375 0.09375 0  0.40625 0.09375 0  0.4375 0.09375 0  0.46875 0.09375 0  0.5 0.09375 0  0.53125 0.09375 0  0.5625 0.09375 0  0.59375 0.09375 0  0.625 0.09375 0  0.65625 0.09375 0  0.6875 0.09375 0  0.71875 0.09375 0  0.75 0.09375 0  0.78125 0.09375 0  0.8125 0.09375 0  0.84375 0.09375 0  0.875 0.09375 0  0.90625 0.09375 0  0.9375 0.09375 0  0.96875 0.09375 0  1 0.09375 0  0 0.125 0  0.03125 0.125 0  0.0625 0.125 0  0.09375 0.125 0  0.125 0.125 0  0.15625 0.125 0  0.1875 0.125 0  0.21875 0.125 0  0.25 0.125 0  0.28125 0.125 0  0.3125 0.125 0  0.34375 0.125 0  0.375 0.125 0  0.40625 0.125 0  0.4375 0.125 0  0.46875 0.125 0  0.5 0.125 0  0.53125 0.125 0  0.5625 0.125 0  0.59375 0.125 0  0.625 0.125 0  0.65625 0.125 0  0.6875 0.125 0  0.71875 0.125 0  0.75 0.125 0  0.78125 0.125 0  0.8125 0.125 0  0.84375 0.125 0  0.875 0.125 0  0.90625 0.125 0  0.9375 0.125 0  0.96875 0.125 0  1 0.125 0  0 0.15625 0  0.03125 0.15625 0  0.0625 0.15625 0  0.09375 0.15625 0  0.125 0.15625 0  0.15625 0.15625 0  0.1875 0.15625 0  0.21875 0.15625 0  0.25 0.15625 0  0.28125 0.15625 0  0.3125 0.15625 0  0.34375 0.15625 0  0.375 0.15625 0  0.40625 0.15625 0  0.4375 0.15625 0  0.46875 0.15625 0  0.5 0.15625 0  0.53125 0.15625 0  0.5625 0.15625 0  0.59375 0.15625 0  0.625 0.15625 0  0.65625 0.15625 0  0.6875 0.15625 0  0.71875 0.15625 0  0.75 0.15625 0  0.78125 0.15625 0  0.8125 0.15625 0  0.84375 0.15625 0  0.875 0.15625 0  0.90625 0.15625 0  0.9375 0.15625 0  0.96875 0.15625 0  1 0.15625 0  0 0.1875 0  0.03125 0.1875 0  0.0625 0.1875 0  0.09375 0.1875 0  0.125 0.1875 0  0.15625 0.1875 0  0.1875 0.1875 0  0.21875 0.1875 0  0.25 0.1875 0  0.28125 0.1875 0  0.3125 0.1875 0  0.34375 0.1875 0  0.375 0.1875 0  0.40625 0.1875 0  0.4375 0.1875 0  0.46875 0.1875 0  0.5 0.1875 0  0.53125 0.1875 0  0.5625 0.1875 0  0.59375 0.1875 0  0.625 0.1875 0  0.65625 0.1875 0  0.6875 0.1875 0  0.71875 0.1875 0  0.75 0.1875 0  0.78125 0.1875 0  0.8125 0.1875 0  0.84375 0.1875 0  0.875 0.1875 0  0.90625 0.1875 0  0.9375 0.1875 0  0.96875 0.1875 0  1 0.1875 0  0 0.21875 0  0.03125 0.21875 0  0.0625 0.21875 0  0.09375 0.21875 0  0.125 0.21875 0  0.15625 0.21875 0  0.1875 0.21875 0  0.21875 0.21875 0  0.25 0.21875 0  0.28125 0.21875 0  0.3125 0.21875 0  0.34375 0.21875 0  0.375 0.21875 0  0.40625 0.21875 0  0.4375 0.21875 0  0.46875 0.21875 0  0.5 0.21875 0  0.53125 0.21875 0  0.5625 0.21875 0  0.59375 0.21875 0  0.625 0.21875 0  0.65625 0.21875 0  0.6875 0.21875 0  0.71875 0.21875 0  0.75 0.21875 0  0.78125 0.21875 0  0.8125 0.21875 0  0.84375 0.21875 0  0.875 0.21875 0  0.90625 0.21875 0  0.9375 0.21875 0  0.96875 0.21875 0  1 0.21875 0  0 0.25 0  0.03125 0.25 0  0.0625 0.25 0  0.09375 0.25 0  0.125 0.25 0  0.15625 0.25 0  0.1875 0.25 0  0.21875 0.25 0  0.25 0.25 0  0.28125 0.25 0  0.3125 0.25 0  0.34375 0.25 0  0.375 0.25 0  0.40625 0.25 0  0.4375 0.25 0  0.46875 0.25 0  0.5 0.25 0  0.53125 0.25 0  0.5625 0.25 0  0.59375 0.25 0  0.625 0.25 0  0.65625 0.25 0  0.6875 0.25 0  0.71875 0.25 0  0.75 0.25 0  0.78125 0.25 0  0.8125 0.25 0  0.84375 0.25 0  0.875 0.25 0  0.90625 0.25 0  0.9375 0.25 0  0.96875 0.25 0  1 0.25 0  0 0.28125 0  0.03125 0.28125 0  0.0625 0.28125 0  0.09375 0.28125 0  0.125 0.28125 0  0.15625 0.28125 0  0.1875 0.28125 0  0.21875 0.28125 0  0.25 0.28125 0  0.28125 0.28125 0  0.3125 0.28125 0  0.34375 0.28125 0  0.375 0.28125 0  0.40625 0.28125 0  0.4375 0.28125 0  0.46875 0.28125 0  0.5 0.28125 0  0.53125 0.28125 0  0.5625 0.28125 0  0.59375 0.28125 0  0.625 0.28125 0  0.65625 0.28125 0  0.6875 0.28125 0  0.71875 0.28125 0  0.75 0.28125 0  0.78125 0.28125 0  0.8125 0.28125 0  0.84375 0.28125 0  0.875 0.28125 0  0.90625 0.28125 0  0.9375 0.28125 0  0.96875 0.28125 0  1 0.28125 0  0 0.3125 0  0.03125 0.3125 0  0.0625 0.3125 0  0.09375 0.3125 0  0.125 0.3125 0  0.15625 0.3125 0  0.1875 0.3125 0  0.21875 0.3125 0  0.25 0.3125 0  0.28125 0.3125 0  0.3125 0.3125 0  0.34375 0.3125 0  0.375 0.3125 0  0.40625 0.3125 0  0.4375 0.3125 0  0.46875 0.3125 0  0.5 0.3125 0  0.53125 0.3125 0  0.5625 0.3125 0  0.59375 0.3125 0  0.625 0.3125 0  0.65625 0.3125 0  0.6875 0.3125 0  0.71875 0.3125 0  0.75 0.3125 0  0.78125 0.3125 0  0.8125 0.3125 0  0.84375 0.3125 0  0.875 0.3125 0  0.90625 0.3125 0  0.9375 0.3125 0  0.96875 0.3125 0  1 0.3125 0  0 0.34375 0  0.03125 0.34375 0  0.0625 0.34375 0  0.09375 0.34375 0  0.125 0.34375 0  0.15625 0.34375 0  0.1875 0.34375 0  0.21875 0.34375 0  0.25 0.34375 0  0.28125 0.34375 0  0.3125 0.34375 0  0.34375 0.34375 0  0.375 0.34375 0  0.40625 0.34375 0  0.4375 0.34375 0  0.46875 0.34375 0  0.5 0.34375 0  0.53125 0.34375 0  0.5625 0.34375 0  0.59375 0.34375 0  0.625 0.34375 0  0.65625 0.34375 0  0.6875 0.34375 0  0.71875 0.34375 0  0.75 0.34375 0  0.78125 0.34375 0  0.8125 0.34375 0  0.84375 0.34375 0  0.875 0.34375 0  0.90625 0.34375 0  0.9375 0.34375 0  0.96875 0.34375 0  1 0.34375 0  0 0.375 0  0.03125 0.375 0  0.0625 0.375 0  0.09375 0.375 0  0.125 0.375 0  0.15625 0.375 0  0.1875 0.375 0  0.21875 0.375 0  0.25 0.375 0  0.28125 0.375 0  0.3125 0.375 0  0.34375 0.375 0  0.375 0.375 0  0.40625 0.375 0  0.4375 0.375 0  0.46875 0.375 0  0.5 0.375 0  0.53125 0.375 0  0.5625 0.375 0  0.59375 0.375 0  0.625 0.375 0  0.65625 0.375 0  0.6875 0.375 0  0.71875 0.375 0  0.75 0.375 0  0.78125 0.375 0  0.8125 0.375 0  0.84375 0.375 0  0.875 0.375 0  0.90625 0.375 0  0.9375 0.375 0  0.96875 0.375 0  1 0.375 0  0 0.40625 0  0.03125 0.40625 0  0.0625 0.40625 0  0.09375 0.40625 0  0.125 0.40625 0  0.15625 0.40625 0  0.1875 0.40625 0  0.21875 0.40625 0  0.25 0.40625 0  0.28125 0.40625 0  0.3125 0.40625 0  0.34375 0.40625 0  0.375 0.40625 0  0.40625 0.40625 0  0.4375 0.40625 0  0.46875 0.40625 0  0.5 0.40625 0  0.53125 0.40625 0  0.5625 0.40625 0  0.59375 0.40625 0  0.625 0.40625 0  0.65625 0.40625 0  0.6875 0.40625 0  0.71875 0.40625 0  0.75 0.40625 0  0.78125 0.40625 0  0.8125 0.40625 0  0.84375 0.40625 0  0.875 0.40625 0  0.90625 0.40625 0  0.9375 0.40625 0  0.96875 0.40625 0  1 0.40625 0  0 0.4375 0  0.03125 0.4375 0  0.0625 0.4375 0  0.09375 0.4375 0  0.125 0.4375 0  0.15625 0.4375 0  0.1875 0.4375 0  0.21875 0.4375 0  0.25 0.4375 0  0.28125 0.4375 0  0.3125 0.4375 0  0.34375 0.4375 0  0.375 0.4375 0  0.40625 0.4375 0  0.4375 0.4375 0  0.46875 0.4375 0  0.5 0.4375 0  0.53125 0.4375 0  0.5625 0.4375 0  0.59375 0.4375 0  0.625 0.4375 0  0.65625 0.4375 0  0.6875 0.4375 0  0.71875 0.4375 0  0.75 0.4375 0  0.78125 0.4375 0  0.8125 0.4375 0  0.84375 0.4375 0  0.875 0.4375 0  0.90625 0.4375 0  0.9375 0.4375 0  0.96875 0.4375 0  1 0.4375 0  0 0.46875 0  0.03125 0.46875 0  0.0625 0.46875 0  0.09375 0.46875 0  0.125 0.46875 0  0.15625 0.46875 0  0.1875 0.46875 0  0.21875 0.46875 0  0.25 0.46875 0  0.28125 0.46875 0  0.3125 0.46875 0  0.34375 0.46875 0  0.375 0.46875 0  0.40625 0.46875 0  0.4375 0.46875 0  0.46875 0.46875 0  0.5 0.46875 0  0.53125 0.46875 0  0.5625 0.46875 0  0.59375 0.46875 0  0.625 0.46875 0  0.65625 0.46875 0  0.6875 0.46875 0  0.71875 0.46875 0  0.75 0.46875 0  0.78125 0.46875 0  0.8125 0.46875 0  0.84375 0.46875 0  0.875 0.46875 0  0.90625 0.46875 0  0.9375 0.46875 0  0.96875 0.46875 0  1 0.46875 0  0 0.5 0  0.03125 0.5 0  0.0625 0.5 0  0.09375 0.5 0  0.125 0.5 0  0.15625 0.5 0  0.1875 0.5 0  0.21875 0.5 0  0.25 0.5 0  0.28125 0.5 0  0.3125 0.5 0  0.34375 0.5 0  0.375 0.5 0  0.40625 0.5 0  0.4375 0.5 0  0.46875 0.5 0  0.5 0.5 0  0.53125 0.5 0  0.5625 0.5 0  0.59375 0.5 0  0.625 0.5 0  0.65625 0.5 0  0.6875 0.5 0  0.71875 0.5 0  0.75 0.5 0  0.78125 0.5 0  0.8125 0.5 0  0.84375 0.5 0  0.875 0.5 0  0.90625 0.5 0  0.9375 0.5 0  0.96875 0.5 0  1 0.5 0  0 0.53125 0  0.03125 0.53125 0  0.0625 0.53125 0  0.09375 0.53125 0  0.125 0.53125 0  0.15625 0.53125 0  0.1875 0.53125 0  0.21875 0.53125 0  0.25 0.53125 0  0.28125 0.53125 0  0.3125 0.53125 0  0.34375 0.53125 0  0.375 0.53125 0  0.40625 0.53125 0  0.4375 0.53125 0  0.46875 0.53125 0  0.5 0.53125 0  0.53125 0.53125 0  0.5625 0.53125 0  0.59375 0.53125 0  0.625 0.53125 0  0.65625 0.53125 0  0.6875 0.53125 0  0.71875 0.53125 0  0.75 0.53125 0  0.78125 0.531
[...]
<CellData  Scalars="f_132654"> 
<DataArray  type="Float64"  Name="f_132654"  format="ascii">5.1960634651374402e-10   8.1464525115305742e-10   8.6180022435914330e-10   9.7340267893048123e-10   1.4429903446187074e-09   1.3726094023863500e-09   2.2409080336768745e-09   1.9978232132933245e-09   3.2248972518075057e-09   2.8250360358451906e-09   4.3571433486783349e-09   3.8224598065502658e-09   5.5941339688688699e-09   4.9517650106949629e-09   6.8883320034671202e-09   6.1695536555034923e-09   8.1900021688214781e-09   7.4290269764168766e-09   9.4491221090580396e-09   8.6817840852438972e-09   1.0617304648651676e-08   9.8796821331633046e-09   1.1649657264356994e-08   1.0976686475248406e-08   1.2506507279731096e-08   1.1930639773617690e-08   1.3154926468591417e-08   1.2704882080963905e-08   1.3569996472850585e-08   1.3269659657980583e-08   1.3735766404393950e-08   1.3603268388914023e-08   1.3645865830972167e-08   1.3692887855603831e-08   1.3303749589742443e-08   1.3535074017007380e-08   1.2722565020649503e-08   1.3135891560732747e-08   1.1924646722064840e-08   1.2510680840136098e-08   1.0940658245026048e-08   1.1683468353484387e-08   9.8084137103391195e-09   1.0686043420319081e-08   8.5714246328782497e-09   9.5567365385491886e-09   7.2772277966656509e-09   8.3389463709148247e-09   5.9755584352489187e-09   7.0794719716697042e-09   4.7164389035860438e-09   5.8267143535201678e-09   3.5482562205973295e-09   4.6288165241904990e-09   2.5159020484301127e-09   3.5318134864142945e-09   1.6590453959745425e-09   2.5778631649174052e-09   1.0105968151829210e-09   1.8036252478709155e-09   5.9543919164452757e-10   1.2388303894749310e-09   4.2877779853631193e-10   9.0537117451786218e-10   1.1179890417716884e-09   1.5794949164690070e-09   1.4296814945486536e-09   1.7160289825961127e-09   1.9580818793340257e-09   2.0655454619502109e-09   2.6825589564193260e-09   2.6151103185846545e-09   3.5752490137402001e-09   3.3436371437347833e-09   4.6018404941283081e-09   4.2231334272884588e-09   5.7228803593961846e-09   5.2198024299570999e-09   6.8952871032541711e-09   6.2953436333380188e-09   8.0740055836384057e-09   7.4084250399727809e-09   9.2137382438014418e-09   8.5162717536883666e-09   1.0270685787139185e-08   9.5763099185492394e-09   1.1204230322739418e-08   1.0547802876869207e-08   1.1978496272195797e-08   1.1393416691027036e-08   1.2563729041612330e-08   1.2080654882002416e-08   1.2937438471660256e-08   1.2583107257783246e-08   1.3085263121184574e-08   1.2881464844789920e-08   1.3001522169031295e-08   1.2964261921836319e-08   1.2689433724417385e-08   1.2828316641656272e-08   1.2160991155796462e-08   1.2478853307983403e-08   1.1436502190213152e-08   1.1929301609442759e-08   1.0543808494246593e-08   1.1200780526045909e-08   9.5172157252265497e-09   1.0321286742246910e-08   8.3961751648446693e-09   9.3246187567551399e-09   7.2237675883521598e-09   8.2490780366739160e-09   6.0450476130245626e-09   7.1359971307620836e-09   4.9053121289244457e-09   6.0281512950103950e-09   3.8483594069342480e-09   4.9681146080428876e-09   2.9148062951745350e-09   3.9966234961069093e-09   2.1405306144630049e-09   3.1510097624292206e-09   1.5553024576246901e-09   2.4637627119265521e-09   1.1816603200611274e-09   1.9612594601714588e-09   1.0331893143023360e-09   1.6632472442588741e-09   1.9508528623242275e-09   2.5572823778049513e-09   2.2212721315429440e-09   2.6656889789325302e-09   2.6774580604721560e-09   2.9513177390103334e-09   3.3013773090705077e-09   3.4035352842407781e-09   4.0690668038342010e-09   4.0049973659298319e-09   4.9510174069078421e-09   4.7325881506129213e-09   5.9133334619404722e-09   5.5583480009311367e-09   6.9190327471087857e-09   6.4505443087326016e-09   7.9294664229171853e-09   7.3748909379402996e-09   8.9058039030175805e-09   8.2958660266210566e-09   9.8105249816768576e-09   9.1780771724063526e-09   1.0608861674722771e-08   9.9876215874090719e-09   1.1270134314270230e-08   1.0693388987903566e-08   1.1768930539822103e-08   1.1268257160510334e-08   1.2086081874191539e-08   1.1690134263478756e-08   1.2209400353002119e-08   1.1942807809936249e-08   1.2134146898399098e-08   1.2016567708380086e-08   1.1863213436652272e-08   1.1908579418497265e-08   1.1407011760144262e-08   1.1622992882739370e-08   1.0783073403884592e-08   1.1170783047976338e-08   1.0015375911559774e-08   1.0569328106372894e-08   9.1334213802787603e-09   9.8417416633734732e-09   8.1711026923889446e-09   9.0159844966320294e-09   7.1654010047701781e-09   8.1237900364587545e-09   6.1549645703673876e-09   7.1994448470643592e-09   5.1786236094523744e-09   6.2784709310763381e-09   4.2738986821401001e-09   5.3962603847475731e-09   3.4755609641569077e-09   4.5867146682490271e-09   2.8143016813511517e-09   3.8809407313145072e-09   2.3155554694684191e-09   3.3060570390293802e-09   1.9984852734062748e-09   2.8841339040658095e-09   1.8744487792975241e-09   2.6320443540417969e-09   2.9860909194661942e-09   3.7105082049462180e-09   3.2056479981568131e-09   3.7856017118395184e-09   3.5728762302069334e-09   3.9954710265448313e-09   4.0729320776923759e-09   4.3321988529864819e-09   4.6866214943187161e-09   4.7828774332509586e-09   5.3903545676533655e-09   5.3301819010715534e-09   6.1570850469277842e-09   5.9530795435444312e-09   6.9573470556786980e-09   6.6276330982807551e-09   7.7603866175869456e-09   7.3279201176907162e-09   8.5353431818328872e-09   8.0270291445304054e-09   9.2524354756184996e-09   8.6980939438190208e-09   9.8841059532955116e-09   9.3153259732995916e-09   1.0406079806229619e-08   9.8550054288651619e-09   1.0798297822638816e-08   1.0296392788272941e-08   1.1045687245941844e-08   1.0622525824364191e-08   1.1138741007620638e-08   1.0820871458448284e-08   1.1073883074822420e-08   1.0883807403037075e-08   1.0853605872235131e-08   1.0808915084612107e-08   1.0486374496587556e-08   1.0599072589786140e-08   9.9863014046146150e-09   1.0262344062760910e-08   9.3726040756630280e-09   9.8116698044345494e-09   8.6688664918937079e-09   9.2643689809725327e-09   7.9021328220357122e-09   8.6414740492537003e-09   7.1018681557276499e-09   7.9669224686019590e-09   6.2988262802720277e-09   7.2666367426084859e-09   5.5238681520762429e-09   6.5675281108071393e-09   4.8067767790186585e-09   5.8964621417231055e-09   4.1751144792885376e-09   5.2792260568755746e-09   3.6531659906380431e-09   4.7395380514649573e-09   3.2609991002788347e-09   4.2981401270407814e-09   3.0136592678205495e-09   3.9719724827359881e-09   2.9200338676001827e-09   3.7744456879458470e-09   4.1838791073509820e-09   4.9948537678114228e-09   4.3450242533519109e-09   5.0327071650626748e-09   4.6100040613494342e-09   5.1578665167806386e-09   4.9676602830217857e-09   5.3654122018988149e-09   5.4042757655617350e-09   5.6473943387462036e-09   5.9030651990643157e-09   5.9929690360444361e-09   6.4448585744973554e-09   6.3888552519915311e-09   7.0088344601584011e-09   6.8198392620500992e-09   7.5733193580748721e-09   7.2693586475998170e-09   8.1166203138477948e-09   7.7201386878581568e-09   8.6178584860669162e-09   8.1548562211345206e-09   9.0577714940773809e-09   8.5568053624129983e-09   9.4194536602113243e-09   8.9105394946920432e-09   9.6890056856510982e-09   9.2024648689387637e-09   9.8560687913478822e-09   9.4213630024060090e-09   9.9142227979070182e-09   9.5588217988567314e-09   9.8612328472862640e-09   9.6095588216959496e-09   9.6991352852797517e-09   9.5716242959543959e-09   9.4341594048021506e-09   9.4464760371993546e-09   9.0764880578607988e-09   9.2389234273047072e-09   8.6398663372678205e-09   8.9569425890973628e-09   8.1410733700579016e-09   8.6113698605912666e-09   7.5992775304902826e-09   8.2154853448692331e-09   7.0352998721933405e-09   7.7845025334090541e-09   6.4708141275383770e-09   7.3349836088898810e-09   5.9275140897506515e-09   6.8842028977601272e-09   5.4262804529225310e-09   6.4494829808842106e-09   4.9863790712024920e-09   6.0475291720461552e-09   4.6247210051759938e-09   5.6937884193987311e-09   4.3552089587586809e-09   5.4018600538451079e-09   4.1881914192054569e-09   5.1829328238049379e-09   4.1297201906934428e-09   5.0465364642826877e-09   5.4981911384784779e-09   6.3609559527030623e-09   5.5956251168063163e-09   6.3590717353108404e-09   5.7489976604822354e-09   6.3938196932110645e-09   5.9511868316236812e-09   6.4634531132363277e-09   6.1944550857341431e-09   6.5653093229059461e-09   6.4694463962069781e-09   6.6954640750771693e-09   6.7655911533733174e-09   6.8489143509363004e-09   7.0715081389514064e-09   7.0197629611217790e-09   7.3754410031983764e-09   7.2014442547875795e-09   7.6657097351195782e-09   7.3869763034469850e-09   7.9311594335467278e-09   7.5692292156345144e-09   8.1615889707672868e-09   7.7411991351430994e-09   8.3481430206874023e-09   7.8962773878822995e-09   8.4836523696544194e-09   8.0285044412037005e-09   8.5629094286191583e-09   8.1327989193515740e-09   8.5828683591668288e-09   8.2051528743670232e-09   8.5427621238235306e-09   8.2427858073098837e-09   8.4441319634012500e-09   8.2442515198432010e-09   8.2907681695229209e-09   8.2094936890529688e-09   8.0885644297385002e-09   8.1398480287428967e-09   7.8452913447111820e-09   8.0379909532721050e-09   7.5702978251329200e-09   7.9078367151408972e-09   7.2741518502759705e-09   7.7543869678241586e-09   6.9682344042958676e-09   7.5835385346143112e-09   6.6643022066662574e-09   7.4018567761611102e-09   6.3740360439595314e-09   7.2163232887579144e-09   6.1085920424065657e-09   7.0340676932115731e-09   5.8781731462708634e-09   6.8620939684120932e-09   5.6916378712232345e-09   6.7070120622664282e-09   5.5561617246686721e-09   6.5747879753182891e-09   5.4769661907537734e-09   6.4704660696179463e-09   5.4570084745441775e-09   6.3994259551210661e-09   6.8785251562059696e-09   7.7563128689955755e-09   6.9093954814640467e-09   7.7137212015244782e-09   6.9460926746198972e-09   7.6558296172175604e-09   6.9857220085436329e-09   7.5841193251873621e-09   7.0267986604495057e-09   7.5013418745242204e-09   7.0677360765410299e-09   7.4106652413718529e-09   7.1069591279939184e-09   7.3155722928321550e-09   7.1429599175752251e-09   7.2197171285287565e-09   7.1743548318339078e-09   7.1267833616943365e-09   7.1999373724798001e-09   7.0403423494847769e-09   7.2187244181071323e-09   6.9637159445485580e-09   7.2299939818748778e-09   6.8998488465406177e-09   7.2333129582686205e-09   6.8511954379170310e-09   7.2285537733216681e-09   6.8196254575128668e-09   7.2158992926961971e-09   6.8063521412059936e-09   7.1958357981755193e-09   6.8118855928280149e-09   7.1691343029424106e-09   6.8360131773317515e-09   7.1368209247585502e-09   6.8778076890180892e-09   7.1001374565518229e-09   6.9356629803153250e-09   7.0604936510027499e-09   7.0073556811040246e-09   7.0194130543492305e-09   7.0901306362081352e-09   6.9784744730733325e-09   7.1808067774777930e-09   6.9392513245458625e-09   7.2758993627785676e-09   6.9032512017212062e-09   7.3717538883091527e-09   6.8718579667093987e-09   7.4646865387806412e-09   6.8462785836759372e-09   7.5511258011723081e-09   6.8274967504964325e-09   7.6277498415103205e-09   6.8162353668251814e-09   7.6916144406538639e-09   6.8129306021722273e-09   7.7402666938380082e-09   6.8177213172930477e-09   7.7718437004847757e-09   6.8304614605870231e-09   7.7850902991604089e-09   6.8508926071707271e-09   7.7811215347830070e-09   8.2718387460003653e-09   9.1273005387763869e-09   8.2358499931786471e-09   9.0445960782368098e-09   8.1552873587360619e-09   8.8953970367259626e-09   8.0315114780453942e-09   8.6843429746592313e-09   7.8693222171598595e-09   8.4195191138640095e-09   7.6749441260878038e-09   8.1110859440358929e-09   7.4558451818140862e-09   7.7708939476240518e-09   7.2204446307984635e-09   7.4120161195768023e-09   6.9777886349934640e-09   7.0482438827186200e-09   6.7372023152123810e-09   6.6935567738080865e-09   6.5079312836625277e-09   6.3615851902145115e-09   6.2987863073875322e-09   6.0650865905974193e-09   6.1178047098207502e-09   5.8154552376432160e-09   5.9719415041197962e-09   5.6222843215577076e-09   5.8668021208963924e-09   5.4929972950423467e-09   5.8064269993535646e-09   5.4325625895577200e-09   5.7931363196044557e-09   5.4433026770548048e-09   5.8274408434780785e-09   5.5248048148538713e-09   5.9080222908822664e-09   5.6739369034924754e-09   6.0317840065416492e-09   5.8849678478615834e-09   6.1939699705846967e-09   6.1497877963355401e-09   6.3883475792175733e-09   6.4582197950202060e-09   6.6074471691943848e-09   6.7984108827737580e-09   6.8428490754280245e-09   7.1572876024232205e-09   7.0855071802947395e-09   7.5210584323660194e-09   7.3260965199844022e-09   7.8757438437145365e-09   7.5553716649966958e-09   8.2077136310509783e-09   7.7645224987503968e-09   8.5042109155502914e-09   7.9455153322809714e-09   8.7538428499630338e-09   8.0914109576211729e-09   8.9470236048859175e-09   8.1966627875353532e-09   9.0762849922087291e-09   8.2578076413189621e-09   9.1385246930128656e-09   9.6245886074911012e-09   1.0421232383100506e-08   9.5240146420816600e-09   1.0300551163926182e-08   9.3301135649366407e-09   1.0064885837216883e-08   9.0483666888467818e-09   9.7218428649622213e-09   8.6896487269034647e-09   9.2845556419082048e-09   8.2677365809399029e-09   8.7698089030155800e-09   7.7988424230629290e-09   8.1973809914085295e-09   7.3009850227610902e-09   7.5892694439164671e-09   6.7932965956114920e-09   6.9688435726373856e-09   6.2952872948932078e-09   6.3599459778688693e-09   5.8260953513450256e-09   5.7859762304295655e-09   5.4037515665090660e-09   5.2689916412797864e-09   5.0444863884020972e-09   4.8288596177074377e-09   4.7621061837224833e-09   4.4824941719549968e-09   4.5674626698473260e-09   4.2432059237959644e-09   4.4680358933903494e-09   4.1201905778461744e-09   4.4676467803393228e-09   4.1181755342946896e-09   4.5663103041239410e-09   4.2372382141732393e-09   4.7602349144918500e-09   4.4728030810125528e-09   5.0419682491213179e-09   4.8158174736828481e-09   5.4006835279469603e-09   5.2530994937638393e-09   5.8225956226628607e-09   5.7678445796908929e-09   6.2914908086586404e-09   6.3402713026654403e-09   6.7893498357967525e-09   6.9483815706344237e-09   7.2970403699879141e-09   7.5688060308941975e-09   7.7950522122170736e-09   8.1777021878165410e-09   8.2642471474801884e-09   8.7516707288973881e-09   8.6865950362519086e-09   9.2686549020331993e-09   9.0458695779859729e-09   9.7087886339955432e-09   9.3282838359837549e-09   1.0055165981975426e-08   9.5230669934099002e-09   1.0294430425612583e-08   9.6236873223773832e-09   1.0419470898089231e-08   1.0884789464071280e-08   1.1588383326559237e-08   1.0724386325925362e-08   1.1433320648941049e-08   1.0425423559337106e-08   1.1119353125416021e-08   9.9972105491906536e-09   1.0656748437465270e-08   9.4562536235174332e-09   1.0063208560793125e-08   8.8233329476489410e-09   9.3615196721048729e-09   8.1227698781960886e-09   8.5786436114626826e-09   7.3814861725727286e-09   7.7446651689207416e-09   6.6279687918906371e-09   6.8916335565532801e-09   5.8911749487953148e-09   6.0523302807989919e-09   5.1994192234173065e-09   5.2590092789049867e-09   4.5792854194870873e-09   4.5421574099307673e-09   4.0546049514473621e-09   3.9293228661228316e-09   3.6455410130155121e-09   3.4440565144794086e-09   3.3678137176159726e-09   3.1050068506108580e-09   3.2320959857545234e-09   2.9252033461236476e-09   3.2436033938962637e-09   2.9115557310671284e-09   3.4018937461073357e-09   3.0645884544965885e-09   3.7008840705111785e-09   3.3784205281725166e-09   4.1290843868735004e-09   3.8409915286168750e-09   4.6700392608065877e-09   4.4345250731715264e-09   5.3029601740719246e-09   5.1362119601355749e-09   6.0035244065190693e-09   5.9190867220373053e-09   6.7448097262525859e-09   6.7530639084966254e-09   7.4983289709716459e-09   7.6060942762313231e-09   8.2351247878291348e-09   8.4453964551596006e-09   8.9268825696846578e-09   9.2387167662602292e-09   9.5470192265373410e-09   9.9555688539278215e-09   1.0071707739554232e-08   1.0568405821647979e-08   1.0480807227627139e-08   1.1053685628250321e-08   1.0758700614717031e-08   1.1392714096973659e-08   1.0896042003914605e-08   1.1574733986642940e-08   1.2004012413558600e-08   1.2583900477815585e-08   1.1790835538376116e-08   1.2399372787929078e-08   1.1399125280963702e-08   1.2018276258992964e-08   1.0841579532914797e-08   1.1453131783711506e-08   1.0139676699901473e-08   1.0725554691188558e-08   9.3203819849911133e-09   9.8634791447977371e-09   8.4151792475855570e-09   8.9000300760963778e-09   7.4588545366319787e-09   7.8722314726597769e-09   6.4881587479520142e-09   6.8195809058244380e-09   5.5403951404140650e-09   5.7825311158365662e-09   4.6519857400543481e-09   4.8009353275021237e-09   3.8570716396776825e-09   3.9125156958069714e-09   3.1862009651017040e-09   3.1514136655730464e-09   2.6651549232294666e-09   2.5468779375867458e-09   2.3139570437741850e-09   2.1221404587299757e-09   2.1461036872750011e-09   1.8935236310694578e-09   2.1680453895115119e-09   1.8698130500031668e-09   2.3789389731791109e-09   2.0519198774542871e-09   2.7706799524145363e-09   2.4328458255429509e-09   3.3282139841590240e-09   2.9979520970709206e-09   4.0301153963827143e-09   3.7255219482924026e-09   4.8494105592115324e-09   4.5875952559187621e-09   5.7546144556670942e-09   5.5510430172306577e-09   6.7109406169140682e-09   6.5788404913321631e-09   7.6816379307199338e-09   7.6314900550512749e-09   8.6294029764112426e-09   8.6685390940529156e-09   9.5178137051503257e-09   9.6501346100580450e-09   1.0312729742623342e-08   1.0538554895240927e-08   1.0983607358473473e-08   1.1299659791496867e-08   1.1504689945940332e-08   1.1904210099270855e-08   1.1856078711624380e-08   1.2328929662925457e-08   1.2025975973399247e-08   1.2559917795402914e-08   1.2939246227229305e-08   1.3369526733109538e-08   1.2682379245426158e-08   1.3161582731943935e-08   1.2213799968996260e-08   1.2727110090704411e-08   1.1549025030775049e-08   1.2080388315827412e-08   1.0713654375450173e-08   1.1246140444181748e-08   9.7397823580140608e-09   1.0256397312701673e-08   8.6648333985012893e-09   9.1491896915016132e-09   7.5301169042518137e-09   7.9670660487056359e-09   6.3792393067441911e-09   6.7554545470599653e-09   5.2564281618315333e-09   5.5609166922131823e-09   4.2048324755124518e-09   4.4293578822326984e-09   3.2648644976230854e-09   3.4042632659174578e-09   2.4726466939256239e-09   2.5250266308352444e-09   1.8586235757517953e-09   1.8254365237560527e-09   1.4463917327865021e-09   1.3323777770484723e-09   1.2517930293227202e-09   1.0647983400102617e-09   1.2823058111601453e-09   1.0329811194891749e-09   1.5367575179909556e-09   1.2381488130866060e-09   2.0053697447277658e-09   1.6724169215343247e-09   2.6701340193561365e-09   2.3190967465142838e-09   3.5055038554931480e-09   3.1533367304695825e-09   4.4793764835848878e-09   4.1430774925006360e-09   5.5543265328187493e-09   5.2502838591296745e-09   6.6890442552472918e-09   6.4324065433000081e-09   7.8399230282829509e-09   7.6440172994115729e-09   8.9627351501824212e-09   8.8385547175042577e-09   1.0014331604227853e-08   9.9701135835166304e-09   1.0954300806002610e-08   1.0995209144871133e-08   1.1746524502108556e-08   1.1874448892745070e-08   1.2360584529641766e-08   1.2574054291155111e-08   1.2773029556647606e-08   1.3067098927700182e-08   1.2970066580781484e-08   1.3337162240980613e-08   1.3654550300077354e-08   1.3915070961426641e-08   1.3364755903908634e-08   1.3690659186317930e-08   1.2838140160108028e-08   1.3218614511750339e-08   1.2092360333094918e-08   1.2514412891432091e-08   1.1156129011595412e-08   1.1604959988458772e-08   1.0065416732539864e-08   1.0525174552098779e-08   8.8621382475329260e-09   9.3165474011847787e-09   7.5925346942307638e-09   8.0255244648250883e-09   6.3053961792672165e-09   6.7017188240031666e-09   5.0501867054018109e-09   5.3960035287949995e-09   3.8751432777919345e-09   4.1585564566797526e-09   2.8254221753078756e-09   3.0369319798222053e-09   1.9413636152176896e-09   2.0742334733006791e-09   1.2569414979977168e-09   1.3074568770525595e-09   7.984578