<?xml version="1.0"?>
<VTKFile type="UnstructuredGrid"  version="0.1"  >
<UnstructuredGrid>
<Piece  NumberOfPoints="81" NumberOfCells="128">
<Points>
<DataArray  type="Float64"  NumberOfComponents="3"  format="ascii">0 0 0  0.125 0 0  0.25 0 0  0.375 0 0  0.5 0 0  0.625 0 0  0.75 0 0  0.875 0 0  1 0 0  0 0.125 0  0.125 0.125 0  0.25 0.125 0  0.375 0.125 0  0.5 0.125 0  0.625 0.125 0  0.75 0.125 0  0.875 0.125 0  1 0.125 0  0 0.25 0  0.125 0.25 0  0.25 0.25 0  0.375 0.25 0  0.5 0.25 0  0.625 0.25 0  0.75 0.25 0  0.875 0.25 0  1 0.25 0  0 0.375 0  0.125 0.375 0  0.25 0.375 0  0.375 0.375 0  0.5 0.375 0  0.625 0.375 0  0.75 0.375 0  0.875 0.375 0  1 0.375 0  0 0.5 0  0.125 0.5 0  0.25 0.5 0  0.375 0.5 0  0.5 0.5 0  0.625 0.5 0  0.75 0.5 0  0.875 0.5 0  1 0.5 0  0 0.625 0  0.125 0.625 0  0.25 0.625 0  0.375 0.625 0  0.5 0.625 0  0.625 0.625 0  0.75 0.625 0  0.875 0.625 0  1 0.625 0  0 0.75 0  0.125 0.75 0  0.25 0.75 0  0.375 0.75 0  0.5 0.75 0  0.625 0.75 0  0.75 0.75 0  0.875 0.75 0  1 0.75 0  0 0.875 0  0.125 0.875 0  0.25 0.875 0  0.375 0.875 0  0.5 0.875 0  0.625 0.875 0  0.75 0.875 0  0.875 0.875 0  1 0.875 0  0 1 0  0.125 1 0  0.25 1 0  0.375 1 0  0.5 1 0  0.625 1 0  0.75 1 0  0.875 1 0  1 1 0  </DataArray>
</Points>
<Cells>
<DataArray  type="UInt32"  Name="connectivity"  format="ascii">0 1 10  0 9 10  1 2 11  1 10 11  2 3 12  2 11 12  3 4 13  3 12 13  4 5 14  4 13 14  5 6 15  5 14 15  6 7 16  6 15 16  7 8 17  7 16 17  9 10 19  9 18 19  10 11 20  10 19 20  11 12 21  11 20 21  12 13 22  12 21 22  13 14 23  13 22 23  14 15 24  14 23 24  15 16 25  15 24 25  16 17 26  16 25 26  18 19 28  18 27 28  19 20 29  19 28 29  20 21 30  20 29 30  21 22 31  21 30 31  22 23 32  22 31 32  23 24 33  23 32 33  24 25 34  24 33 34  25 26 35  25 34 35  27 28 37  27 36 37  28 29 38  28 37 38  29 30 39  29 38 39  30 31 40  30 39 40  31 32 41  31 40 41  32 33 42  32 41 42  33 34 43  33 42 43  34 35 44  34 43 44  36 37 46  36 45 46  37 38 47  37 46 47  38 39 48  38 47 48  39 40 49  39 48 49  40 41 50  40 49 50  41 42 51  41 50 51  42 43 52  42 51 52  43 44 53  43 52 53  45 46 55  45 54 55  46 47 56  46 55 56  47 48 57  47 56 57  48 49 58  48 57 58  49 50 59  49 58 59  50 51 60  50 59 60  51 52 61  51 60 61  52 53 62  52 61 62  54 55 64  54 63 64  55 56 65  55 64 65  56 57 66  56 65 66  57 58 67  57 66 67  58 59 68  58 67 68  59 60 69  59 68 69  60 61 70  60 69 70  61 62 71  61 70 71  63 64 73  63 72 73  64 65 74  64 73 74  65 66 75  65 74 75  66 67 76  66 75 76  67 68 77  67 76 77  68 69 78  68 77 78  69 70 79  69 78 79  70 71 80  70 79 80  </DataArray>
<DataArray  type="UInt32"  Name="offsets"  format="ascii">3 6 9 12 15 18 21 24 27 30 33 36 39 42 45 48 51 54 57 60 63 66 69 72 75 78 81 84 87 90 93 96 99 102 105 108 111 114 117 120 123 126 129 132 135 138 141 144 147 150 153 156 159 162 165 168 171 174 177 180 183 186 189 192 195 198 201 204 207 210 213 216 219 222 225 228 231 234 237 240 243 246 249 252 255 258 261 264 267 270 273 276 279 282 285 288 291 294 297 300 303 306 309 312 315 318 321 324 327 330 333 336 339 342 345 348 351 354 357 360 363 366 369 372 375 378 381 384 </DataArray>
<DataArray  type="UInt8"  Name="types"  format="ascii">5 5 5 5 5 5 5 5 5 5 5 5 5 5 5 5 5 5 5 5 5 5 5 5 5 5 5 5 5 5 5 5 5 5 5 5 5 5 5 5 5 5 5 5 5 5 5 5 5 5 5 5 5 5 5 5 5 5 5 5 5 5 5 5 5 5 5 5 5 5 5 5 5 5 5 5 5 5 5 5 5 5 5 5 5 5 5 5 5 5 5 5 5 5 5 5 5 5 5 5 5 5 5 5 5 5 5 5 5 5 5 5 5 5 5 5 5 5 5 5 5 5 5 5 5 5 5 5 </DataArray>
</Cells>
<CellData  Scalars="f_47745"> 
<DataArray  type="Float64"  Name="f_47745"  format="ascii">2.8773002704569242e-06   3.1647155834231224e-06   6.5805085925761380e-06   1.0674393044928782e-05   9.2940498125369665e-06   1.8233461949018466e-05   9.5482147135046366e-06   2.1807074017229340e-05   7.2097062169626863e-06   1.9351093516718144e-05   3.6730776161789702e-06   1.2317475904900399e-05   8.1316063720109329e-07   4.8347967870448523e-06   7.2709251829663397e-07   1.4676357801897865e-06   1.7912807385157955e-05   1.4430322086379292e-05   2.4020852540396718e-05   2.3569892303294693e-05   2.4625984297180229e-05   2.2675843480811844e-05   2.0163856328603113e-05   1.7331141071959294e-05   1.3273736672675155e-05   1.0503618394867319e-05   7.9955516827936529e-06   6.1659233116891596e-06   7.6898777945548392e-06   6.8889965754960390e-06   9.7572687877442067e-06   1.3493024366554380e-05   3.6001837950160482e-05   2.8092940556932992e-05   3.3884835453833911e-05   3.4722442542976525e-05   2.3314882732729022e-05   2.3277170430337927e-05   1.1065604563569452e-05   1.1013771195414550e-05   4.2585807579925623e-06   4.2424552842437350e-06   6.8736364782808229e-06   6.8787848556723636e-06   1.8266004813760763e-05   1.7425734065599135e-05   2.3459646645202232e-05   3.1188052814490581e-05   4.7259637464549757e-05   3.6318195016598790e-05   3.6444479841596780e-05   3.7769736165616331e-05   1.8931298799030178e-05   1.8958458911665949e-05   4.6254040453123493e-06   4.6258226071509406e-06   1.8211531779251359e-06   1.8220497411149458e-06   1.2168516173047807e-05   1.2158999821909480e-05   3.0924850319300083e-05   2.9650937383956066e-05   3.4374305519772540e-05   4.5228527514429444e-05   4.5262271642067856e-05   3.4375239313070434e-05   2.9657186715380490e-05   3.0962752030382770e-05   1.2161218275449143e-05   1.2170108331995357e-05   1.8220338047874627e-06   1.8211462389028649e-06   4.6241450913928180e-06   4.6237431495168883e-06   1.8954663101299461e-05   1.8927328197627214e-05   3.7728448629696342e-05   3.6435046093341017e-05   3.6325268700967538e-05   4.7233609368840720e-05   3.1216718936852597e-05   2.3463575492342768e-05   1.7429537341174467e-05   1.8292655042721688e-05   6.8794889840462656e-06   6.8743167078496631e-06   4.2407598432110156e-06   4.2574955027754903e-06   1.1010025344947337e-05   1.1062051689690417e-05   2.3269821988496593e-05   2.3307546892658220e-05   3.4686449251795344e-05   3.3869667586920529e-05   2.8109185216532458e-05   3.5993091107887740e-05   1.3505341549607411e-05   9.7653982468826951e-06   6.8904368828505929e-06   7.6890996071478205e-06   6.1653166554250725e-06   7.9692376836833645e-06   1.0500173931628214e-05   1.3235709428565279e-05   1.7324116828257008e-05   2.0122616456630444e-05   2.2662817259615628e-05   2.4590783072994184e-05   2.3546688644420278e-05   2.3997314177610178e-05   1.4451723145933530e-05   1.7923799125829289e-05   1.4828390806833031e-06   7.4451793132314631e-07   4.8226514764813385e-06   8.0521084389983209e-07   1.2289567747947648e-05   3.6726375750352029e-06   1.9314310884393338e-05   7.2085289396124130e-06   2.1771916816020562e-05   9.5484987363651481e-06   1.8210806239967194e-05   9.2978627191103577e-06   1.0671817541148576e-05   6.5889215378263529e-06   3.1775826869611520e-06   2.8898931061946298e-06   </DataArray> 
</CellData> 
</Piece>
</UnstructuredGrid>
</VTKFile>