<?xml version="1.0"?>
<VTKFile type="UnstructuredGrid"  version="0.1"  >
<UnstructuredGrid>
<Piece  NumberOfPoints="25" NumberOfCells="32">
<Points>
<DataArray  type="Float64"  NumberOfComponents="3"  format="ascii">0 0 0  0.25 0 0  0.5 0 0  0.75 0 0  1 0 0  0 0.25 0  0.25 0.25 0  0.5 0.25 0  0.75 0.25 0  1 0.25 0  0 0.5 0  0.25 0.5 0  0.5 0.5 0  0.75 0.5 0  1 0.5 0  0 0.75 0  0.25 0.75 0  0.5 0.75 0  0.75 0.75 0  1 0.75 0  0 1 0  0.25 1 0  0.5 1 0  0.75 1 0  1 1 0  </DataArray>
</Points>
<Cells>
<DataArray  type="UInt32"  Name="connectivity"  format="ascii">0 1 6  0 5 6  1 2 7  1 6 7  2 3 8  2 7 8  3 4 9  3 8 9  5 6 11  5 10 11  6 7 12  6 11 12  7 8 13  7 12 13  8 9 14  8 13 14  10 11 16  10 15 16  11 12 17  11 16 17  12 13 18  12 17 18  13 14 19  13 18 19  15 16 21  15 20 21  16 17 22  16 21 22  17 18 23  17 22 23  18 19 24  18 23 24  </DataArray>
<DataArray  type="UInt32"  Name="offsets"  format="ascii">3 6 9 12 15 18 21 24 27 30 33 36 39 42 45 48 51 54 57 60 63 66 69 72 75 78 81 84 87 90 93 96 </DataArray>
<DataArray  type="UInt8"  Name="types"  format="ascii">5 5 5 5 5 5 5 5 5 5 5 5 5 5 5 5 5 5 5 5 5 5 5 5 5 5 5 5 5 5 5 5 </DataArray>
</Cells>
<CellData  Scalars="f_34440"> 
<DataArray  type="Float64"  Name="f_34440"  format="ascii">3.9485751605244195e-02   1.8969853116933902e-02   1.1943051758571939e-02   6.1946382333699472e-03   9.0672161108761948e-03   8.8869012600773147e-03   3.6611652351681540e-02   2.1985205584885203e-02   3.7096666366077155e-02   9.5804835579451248e-06   3.9592919468679939e-02   1.8130078063272805e-02   2.1321648320687853e-02   3.6273123344072150e-02   1.9199555935779895e-02   1.8112555773918203e-02   1.8608708930918417e-02   1.7764460995103239e-02   3.7299318692926783e-02   2.1617132255133942e-02   1.8670703299595005e-02   4.0389850596681251e-02   1.6323416506688201e-05   3.6252147315903462e-02   2.1135230693688709e-02   3.6611652351681616e-02   9.8041885461285609e-03   9.6523361603564270e-03   6.5446398402539347e-03   1.3067751200125963e-02   1.7582186871508039e-02   4.0062495474051441e-02   </DataArray> 
</CellData> 
</Piece>
</UnstructuredGrid>
</VTKFile>