<?xml version="1.0"?>
<VTKFile type="UnstructuredGrid"  version="0.1"  >
<UnstructuredGrid>
<Piece  NumberOfPoints="81" NumberOfCells="128">
<Points>
<DataArray  type="Float64"  NumberOfComponents="3"  format="ascii">0 0 0  0.125 0 0  0.25 0 0  0.375 0 0  0.5 0 0  0.625 0 0  0.75 0 0  0.875 0 0  1 0 0  0 0.125 0  0.125 0.125 0  0.25 0.125 0  0.375 0.125 0  0.5 0.125 0  0.625 0.125 0  0.75 0.125 0  0.875 0.125 0  1 0.125 0  0 0.25 0  0.125 0.25 0  0.25 0.25 0  0.375 0.25 0  0.5 0.25 0  0.625 0.25 0  0.75 0.25 0  0.875 0.25 0  1 0.25 0  0 0.375 0  0.125 0.375 0  0.25 0.375 0  0.375 0.375 0  0.5 0.375 0  0.625 0.375 0  0.75 0.375 0  0.875 0.375 0  1 0.375 0  0 0.5 0  0.125 0.5 0  0.25 0.5 0  0.375 0.5 0  0.5 0.5 0  0.625 0.5 0  0.75 0.5 0  0.875 0.5 0  1 0.5 0  0 0.625 0  0.125 0.625 0  0.25 0.625 0  0.375 0.625 0  0.5 0.625 0  0.625 0.625 0  0.75 0.625 0  0.875 0.625 0  1 0.625 0  0 0.75 0  0.125 0.75 0  0.25 0.75 0  0.375 0.75 0  0.5 0.75 0  0.625 0.75 0  0.75 0.75 0  0.875 0.75 0  1 0.75 0  0 0.875 0  0.125 0.875 0  0.25 0.875 0  0.375 0.875 0  0.5 0.875 0  0.625 0.875 0  0.75 0.875 0  0.875 0.875 0  1 0.875 0  0 1 0  0.125 1 0  0.25 1 0  0.375 1 0  0.5 1 0  0.625 1 0  0.75 1 0  0.875 1 0  1 1 0  </DataArray>
</Points>
<Cells>
<DataArray  type="UInt32"  Name="connectivity"  format="ascii">0 1 10  0 9 10  1 2 11  1 10 11  2 3 12  2 11 12  3 4 13  3 12 13  4 5 14  4 13 14  5 6 15  5 14 15  6 7 16  6 15 16  7 8 17  7 16 17  9 10 19  9 18 19  10 11 20  10 19 20  11 12 21  11 20 21  12 13 22  12 21 22  13 14 23  13 22 23  14 15 24  14 23 24  15 16 25  15 24 25  16 17 26  16 25 26  18 19 28  18 27 28  19 20 29  19 28 29  20 21 30  20 29 30  21 22 31  21 30 31  22 23 32  22 31 32  23 24 33  23 32 33  24 25 34  24 33 34  25 26 35  25 34 35  27 28 37  27 36 37  28 29 38  28 37 38  29 30 39  29 38 39  30 31 40  30 39 40  31 32 41  31 40 41  32 33 42  32 41 42  33 34 43  33 42 43  34 35 44  34 43 44  36 37 46  36 45 46  37 38 47  37 46 47  38 39 48  38 47 48  39 40 49  39 48 49  40 41 50  40 49 50  41 42 51  41 50 51  42 43 52  42 51 52  43 44 53  43 52 53  45 46 55  45 54 55  46 47 56  46 55 56  47 48 57  47 56 57  48 49 58  48 57 58  49 50 59  49 58 59  50 51 60  50 59 60  51 52 61  51 60 61  52 53 62  52 61 62  54 55 64  54 63 64  55 56 65  55 64 65  56 57 66  56 65 66  57 58 67  57 66 67  58 59 68  58 67 68  59 60 69  59 68 69  60 61 70  60 69 70  61 62 71  61 70 71  63 64 73  63 72 73  64 65 74  64 73 74  65 66 75  65 74 75  66 67 76  66 75 76  67 68 77  67 76 77  68 69 78  68 77 78  69 70 79  69 78 79  70 71 80  70 79 80  </DataArray>
<DataArray  type="UInt32"  Name="offsets"  format="ascii">3 6 9 12 15 18 21 24 27 30 33 36 39 42 45 48 51 54 57 60 63 66 69 72 75 78 81 84 87 90 93 96 99 102 105 108 111 114 117 120 123 126 129 132 135 138 141 144 147 150 153 156 159 162 165 168 171 174 177 180 183 186 189 192 195 198 201 204 207 210 213 216 219 222 225 228 231 234 237 240 243 246 249 252 255 258 261 264 267 270 273 276 279 282 285 288 291 294 297 300 303 306 309 312 315 318 321 324 327 330 333 336 339 342 345 348 351 354 357 360 363 366 369 372 375 378 381 384 </DataArray>
<DataArray  type="UInt8"  Name="types"  format="ascii">5 5 5 5 5 5 5 5 5 5 5 5 5 5 5 5 5 5 5 5 5 5 5 5 5 5 5 5 5 5 5 5 5 5 5 5 5 5 5 5 5 5 5 5 5 5 5 5 5 5 5 5 5 5 5 5 5 5 5 5 5 5 5 5 5 5 5 5 5 5 5 5 5 5 5 5 5 5 5 5 5 5 5 5 5 5 5 5 5 5 5 5 5 5 5 5 5 5 5 5 5 5 5 5 5 5 5 5 5 5 5 5 5 5 5 5 5 5 5 5 5 5 5 5 5 5 5 5 </DataArray>
</Cells>
<CellData  Scalars="f_34901"> 
<DataArray  type="Float64"  Name="f_34901"  format="ascii">5.7726120822018103e-03   5.3974901594394924e-03   1.0481858775632782e-02   1.3576873830477551e-02   1.3542095778036613e-02   2.1122921898213486e-02   1.3155731414801404e-02   2.4170024512046057e-02   9.5440013219348536e-03   2.0928001043141929e-02   4.8058588739167589e-03   1.3279884591105370e-02   1.6663475666059066e-03   5.6631106982173380e-03   1.4038469873104956e-03   2.4419193223526505e-03   2.3463743973383088e-02   1.9408324188511267e-02   2.8449589695518314e-02   2.8314867065747262e-02   2.7413544802383678e-02   2.7724167908322751e-02   2.0928803143173604e-02   2.1701492104050209e-02   1.2762473785426706e-02   1.3734122405776537e-02   7.6400165128621559e-03   8.4423799439278281e-03   8.4358630534089752e-03   8.8404026131581673e-03   1.0973676636237033e-02   1.4531369961423351e-02   4.4783778870337798e-02   3.6240553010118602e-02   4.1536508400054101e-02   4.1543962783370192e-02   2.8746057536907059e-02   2.9027144941593541e-02   1.3862616684326182e-02   1.4317815759711874e-02   5.5578162631200450e-03   5.9970061803555292e-03   8.6170792048663580e-03   8.8905217864356286e-03   2.1095319796408933e-02   2.1210478080584814e-02   2.7487356832432100e-02   3.5565505277307181e-02   5.8358702046535073e-02   4.6483777124397545e-02   4.5779579257207520e-02   4.5850095106827818e-02   2.4152495723774352e-02   2.4347635150437870e-02   6.1430984431333083e-03   6.3339331114763663e-03   2.2714128228561560e-03   2.3643076060229549e-03   1.4739862041101729e-02   1.4742432251370875e-02   3.6121851282633531e-02   3.6158811138185538e-02   4.2346477938508237e-02   5.3949785862935626e-02   5.6369187212334804e-02   4.4291089800740840e-02   3.8662228042812830e-02   3.8749784761413837e-02   1.6285466990368851e-02   1.6342118252736730e-02   2.3967697762394312e-03   2.3279443230595667e-03   5.1361383957642679e-03   4.9625137945623118e-03   2.2874033930032206e-02   2.2719728060394684e-02   4.5173223050026939e-02   4.5199804228502713e-02   4.7137055207853204e-02   5.9215719948960931e-02   3.9953594118385935e-02   3.0961833448388751e-02   2.4257769838246658e-02   2.4263110713302449e-02   9.6946244547934778e-03   9.4648437113166069e-03   4.8748348642698291e-03   4.4305991356429200e-03   1.2653682189082303e-02   1.2173941977597772e-02   2.8495345813165346e-02   2.8206243717303899e-02   4.3157342735676750e-02   4.3195118691003356e-02   3.9146168014896926e-02   4.8435268970653353e-02   1.8523652308244536e-02   1.4098532232649053e-02   1.0770173756935770e-02   1.0441491740658929e-02   8.0781688051150789e-03   7.2599371196914852e-03   1.2092071496798161e-02   1.1041525536202823e-02   2.0499583839865741e-02   1.9621819549767293e-02   2.8424134418816131e-02   2.8030136545651202e-02   3.1307892856358412e-02   3.1424609729242950e-02   2.3003448777871867e-02   2.7929388039049589e-02   3.9325775498891338e-03   2.7509277439193521e-03   5.4592469007829422e-03   2.2778456998854843e-03   1.1966006168812257e-02   4.3429090243210173e-03   1.9665750434496282e-02   8.6983351749373838e-03   2.4076330064170898e-02   1.2815861083828803e-02   2.2659863382052489e-02   1.4315624469332587e-02   1.6313552086977223e-02   1.2367931351691402e-02   7.7699663754756988e-03   8.1863056560859040e-03   </DataArray> 
</CellData> 
</Piece>
</UnstructuredGrid>
</VTKFile>