<?xml version="1.0"?>
<VTKFile type="UnstructuredGrid"  version="0.1"  >
<UnstructuredGrid>
<Piece  NumberOfPoints="25" NumberOfCells="32">
<Points>
<DataArray  type="Float64"  NumberOfComponents="3"  format="ascii">0 0 0  0.25 0 0  0.5 0 0  0.75 0 0  1 0 0  0 0.25 0  0.25 0.25 0  0.5 0.25 0  0.75 0.25 0  1 0.25 0  0 0.5 0  0.25 0.5 0  0.5 0.5 0  0.75 0.5 0  1 0.5 0  0 0.75 0  0.25 0.75 0  0.5 0.75 0  0.75 0.75 0  1 0.75 0  0 1 0  0.25 1 0  0.5 1 0  0.75 1 0  1 1 0  </DataArray>
</Points>
<Cells>
<DataArray  type="UInt32"  Name="connectivity"  format="ascii">0 1 6  0 5 6  1 2 7  1 6 7  2 3 8  2 7 8  3 4 9  3 8 9  5 6 11  5 10 11  6 7 12  6 11 12  7 8 13  7 12 13  8 9 14  8 13 14  10 11 16  10 15 16  11 12 17  11 16 17  12 13 18  12 17 18  13 14 19  13 18 19  15 16 21  15 20 21  16 17 22  16 21 22  17 18 23  17 22 23  18 19 24  18 23 24  </DataArray>
<DataArray  type="UInt32"  Name="offsets"  format="ascii">3 6 9 12 15 18 21 24 27 30 33 36 39 42 45 48 51 54 57 60 63 66 69 72 75 78 81 84 87 90 93 96 </DataArray>
<DataArray  type="UInt8"  Name="types"  format="ascii">5 5 5 5 5 5 5 5 5 5 5 5 5 5 5 5 5 5 5 5 5 5 5 5 5 5 5 5 5 5 5 5 </DataArray>
</Cells>
<CellData  Scalars="f_47649"> 
<DataArray  type="Float64"  Name="f_47649"  format="ascii">6.0411340095494825e-08   4.0312761249857138e-07   9.0720373458740694e-08   1.3580043530455377e-07   5.1115335463986479e-08   1.7960174492827851e-07   4.6553899918071633e-07   4.1154808936274367e-07   2.5326483778963593e-07   1.6758086232191929e-07   9.1270754064304999e-08   8.5245625173602338e-08   6.6663041502074845e-08   1.1895602348602102e-08   1.9817196709838597e-07   2.5491506617150067e-07   2.5866794542951382e-07   2.0627515897096131e-07   1.1808726478645023e-08   6.6745146142640659e-08   8.6237619117898531e-08   9.2223019792072653e-08   1.6638296947189961e-07   2.5637592249155826e-07   4.1160794870440635e-07   4.5864510596511847e-07   1.7683460266969685e-07   5.3337396250449627e-08   1.3845415639361514e-07   8.5720791912425492e-08   3.9125377900848336e-07   5.6550475186926847e-08   </DataArray> 
</CellData> 
</Piece>
</UnstructuredGrid>
</VTKFile>