<?xml version="1.0"?>
<VTKFile type="UnstructuredGrid"  version="0.1"  >
<UnstructuredGrid>
<Piece  NumberOfPoints="25" NumberOfCells="32">
<Points>
<DataArray  type="Float64"  NumberOfComponents="3"  format="ascii">0 0 0  0.25 0 0  0.5 0 0  0.75 0 0  1 0 0  0 0.25 0  0.25 0.25 0  0.5 0.25 0  0.75 0.25 0  1 0.25 0  0 0.5 0  0.25 0.5 0  0.5 0.5 0  0.75 0.5 0  1 0.5 0  0 0.75 0  0.25 0.75 0  0.5 0.75 0  0.75 0.75 0  1 0.75 0  0 1 0  0.25 1 0  0.5 1 0  0.75 1 0  1 1 0  </DataArray>
</Points>
<Cells>
<DataArray  type="UInt32"  Name="connectivity"  format="ascii">0 1 6  0 5 6  1 2 7  1 6 7  2 3 8  2 7 8  3 4 9  3 8 9  5 6 11  5 10 11  6 7 12  6 11 12  7 8 13  7 12 13  8 9 14  8 13 14  10 11 16  10 15 16  11 12 17  11 16 17  12 13 18  12 17 18  13 14 19  13 18 19  15 16 21  15 20 21  16 17 22  16 21 22  17 18 23  17 22 23  18 19 24  18 23 24  </DataArray>
<DataArray  type="UInt32"  Name="offsets"  format="ascii">3 6 9 12 15 18 21 24 27 30 33 36 39 42 45 48 51 54 57 60 63 66 69 72 75 78 81 84 87 90 93 96 </DataArray>
<DataArray  type="UInt8"  Name="types"  format="ascii">5 5 5 5 5 5 5 5 5 5 5 5 5 5 5 5 5 5 5 5 5 5 5 5 5 5 5 5 5 5 5 5 </DataArray>
</Cells>
<CellData  Scalars="f_42048"> 
<DataArray  type="Float64"  Name="f_42048"  format="ascii">1.5591421363306089e-04   9.9170141916634586e-05   3.9223809140902928e-05   1.9300610150441627e-05   3.4843932862287964e-05   3.2972112353252050e-05   1.5056797435345086e-04   9.4922244373675684e-05   1.8423403688021278e-04   5.4083030446866608e-07   2.0081150161806090e-04   8.5569423865629465e-05   1.1844155913903732e-04   1.8734486600055088e-04   8.5911691792351036e-05   9.9314117071234019e-05   9.8848489576090971e-05   8.4265244217739043e-05   1.8701765949511600e-04   1.1813622763584246e-04   8.5805062967646569e-05   2.0036411953077614e-04   4.5424142550954580e-07   1.8353954576280927e-04   9.3819550058386769e-05   1.5056797435345119e-04   3.3672406032416374e-05   3.5387686121611368e-05   1.9421126263707727e-05   3.9677217949159595e-05   9.8222218048484646e-05   1.5613711167944717e-04   </DataArray> 
</CellData> 
</Piece>
</UnstructuredGrid>
</VTKFile>