<?xml version="1.0"?>
<VTKFile type="UnstructuredGrid"  version="0.1"  >
<UnstructuredGrid>
<Piece  NumberOfPoints="1089" NumberOfCells="2048">
<Points>
<DataArray  type="Float64"  NumberOfComponents="3"  format="ascii">0 0 0  0.03125 0 0  0.0625 0 0  0.09375 0 0  0.125 0 0  0.15625 0 0  0.1875 0 0  0.21875 0 0  0.25 0 0  0.28125 0 0  0.3125 0 0  0.34375 0 0  0.375 0 0  0.40625 0 0  0.4375 0 0  0.46875 0 0  0.5 0 0  0.53125 0 0  0.5625 0 0  0.59375 0 0  0.625 0 0  0.65625 0 0  0.6875 0 0  0.71875 0 0  0.75 0 0  0.78125 0 0  0.8125 0 0  0.84375 0 0  0.875 0 0  0.90625 0 0  0.9375 0 0  0.96875 0 0  1 0 0  0 0.03125 0  0.03125 0.03125 0  0.0625 0.03125 0  0.09375 0.03125 0  0.125 0.03125 0  0.15625 0.03125 0  0.1875 0.03125 0  0.21875 0.03125 0  0.25 0.03125 0  0.28125 0.03125 0  0.3125 0.03125 0  0.34375 0.03125 0  0.375 0.03125 0  0.40625 0.03125 0  0.4375 0.03125 0  0.46875 0.03125 0  0.5 0.03125 0  0.53125 0.03125 0  0.5625 0.03125 0  0.59375 0.03125 0  0.625 0.03125 0  0.65625 0.03125 0  0.6875 0.03125 0  0.71875 0.03125 0  0.75 0.03125 0  0.78125 0.03125 0  0.8125 0.03125 0  0.84375 0.03125 0  0.875 0.03125 0  0.90625 0.03125 0  0.9375 0.03125 0  0.96875 0.03125 0  1 0.03125 0  0 0.0625 0  0.03125 0.0625 0  0.0625 0.0625 0  0.09375 0.0625 0  0.125 0.0625 0  0.15625 0.0625 0  0.1875 0.0625 0  0.21875 0.0625 0  0.25 0.0625 0  0.28125 0.0625 0  0.3125 0.0625 0  0.34375 0.0625 0  0.375 0.0625 0  0.40625 0.0625 0  0.4375 0.0625 0  0.46875 0.0625 0  0.5 0.0625 0  0.53125 0.0625 0  0.5625 0.0625 0  0.59375 0.0625 0  0.625 0.0625 0  0.65625 0.0625 0  0.6875 0.0625 0  0.71875 0.0625 0  0.75 0.0625 0  0.78125 0.0625 0  0.8125 0.0625 0  0.84375 0.0625 0  0.875 0.0625 0  0.90625 0.0625 0  0.9375 0.0625 0  0.96875 0.0625 0  1 0.0625 0  0 0.09375 0  0.03125 0.09375 0  0.0625 0.09375 0  0.09375 0.09375 0  0.125 0.09375 0  0.15625 0.09375 0  0.1875 0.09375 0  0.21875 0.09375 0  0.25 0.09375 0  0.28125 0.09375 0  0.3125 0.09375 0  0.34375 0.09375 0  0.375 0.09375 0  0.40625 0.09375 0  0.4375 0.09375 0  0.46875 0.09375 0  0.5 0.09375 0  0.53125 0.09375 0  0.5625 0.09375 0  0.59375 0.09375 0  0.625 0.09375 0  0.65625 0.09375 0  0.6875 0.09375 0  0.71875 0.09375 0  0.75 0.09375 0  0.78125 0.09375 0  0.8125 0.09375 0  0.84375 0.09375 0  0.875 0.09375 0  0.90625 0.09375 0  0.9375 0.09375 0  0.96875 0.09375 0  1 0.09375 0  0 0.125 0  0.03125 0.125 0  0.0625 0.125 0  0.09375 0.125 0  0.125 0.125 0  0.15625 0.125 0  0.1875 0.125 0  0.21875 0.125 0  0.25 0.125 0  0.28125 0.125 0  0.3125 0.125 0  0.34375 0.125 0  0.375 0.125 0  0.40625 0.125 0  0.4375 0.125 0  0.46875 0.125 0  0.5 0.125 0  0.53125 0.125 0  0.5625 0.125 0  0.59375 0.125 0  0.625 0.125 0  0.65625 0.125 0  0.6875 0.125 0  0.71875 0.125 0  0.75 0.125 0  0.78125 0.125 0  0.8125 0.125 0  0.84375 0.125 0  0.875 0.125 0  0.90625 0.125 0  0.9375 0.125 0  0.96875 0.125 0  1 0.125 0  0 0.15625 0  0.03125 0.15625 0  0.0625 0.15625 0  0.09375 0.15625 0  0.125 0.15625 0  0.15625 0.15625 0  0.1875 0.15625 0  0.21875 0.15625 0  0.25 0.15625 0  0.28125 0.15625 0  0.3125 0.15625 0  0.34375 0.15625 0  0.375 0.15625 0  0.40625 0.15625 0  0.4375 0.15625 0  0.46875 0.15625 0  0.5 0.15625 0  0.53125 0.15625 0  0.5625 0.15625 0  0.59375 0.15625 0  0.625 0.15625 0  0.65625 0.15625 0  0.6875 0.15625 0  0.71875 0.15625 0  0.75 0.15625 0  0.78125 0.15625 0  0.8125 0.15625 0  0.84375 0.15625 0  0.875 0.15625 0  0.90625 0.15625 0  0.9375 0.15625 0  0.96875 0.15625 0  1 0.15625 0  0 0.1875 0  0.03125 0.1875 0  0.0625 0.1875 0  0.09375 0.1875 0  0.125 0.1875 0  0.15625 0.1875 0  0.1875 0.1875 0  0.21875 0.1875 0  0.25 0.1875 0  0.28125 0.1875 0  0.3125 0.1875 0  0.34375 0.1875 0  0.375 0.1875 0  0.40625 0.1875 0  0.4375 0.1875 0  0.46875 0.1875 0  0.5 0.1875 0  0.53125 0.1875 0  0.5625 0.1875 0  0.59375 0.1875 0  0.625 0.1875 0  0.65625 0.1875 0  0.6875 0.1875 0  0.71875 0.1875 0  0.75 0.1875 0  0.78125 0.1875 0  0.8125 0.1875 0  0.84375 0.1875 0  0.875 0.1875 0  0.90625 0.1875 0  0.9375 0.1875 0  0.96875 0.1875 0  1 0.1875 0  0 0.21875 0  0.03125 0.21875 0  0.0625 0.21875 0  0.09375 0.21875 0  0.125 0.21875 0  0.15625 0.21875 0  0.1875 0.21875 0  0.21875 0.21875 0  0.25 0.21875 0  0.28125 0.21875 0  0.3125 0.21875 0  0.34375 0.21875 0  0.375 0.21875 0  0.40625 0.21875 0  0.4375 0.21875 0  0.46875 0.21875 0  0.5 0.21875 0  0.53125 0.21875 0  0.5625 0.21875 0  0.59375 0.21875 0  0.625 0.21875 0  0.65625 0.21875 0  0.6875 0.21875 0  0.71875 0.21875 0  0.75 0.21875 0  0.78125 0.21875 0  0.8125 0.21875 0  0.84375 0.21875 0  0.875 0.21875 0  0.90625 0.21875 0  0.9375 0.21875 0  0.96875 0.21875 0  1 0.21875 0  0 0.25 0  0.03125 0.25 0  0.0625 0.25 0  0.09375 0.25 0  0.125 0.25 0  0.15625 0.25 0  0.1875 0.25 0  0.21875 0.25 0  0.25 0.25 0  0.28125 0.25 0  0.3125 0.25 0  0.34375 0.25 0  0.375 0.25 0  0.40625 0.25 0  0.4375 0.25 0  0.46875 0.25 0  0.5 0.25 0  0.53125 0.25 0  0.5625 0.25 0  0.59375 0.25 0  0.625 0.25 0  0.65625 0.25 0  0.6875 0.25 0  0.71875 0.25 0  0.75 0.25 0  0.78125 0.25 0  0.8125 0.25 0  0.84375 0.25 0  0.875 0.25 0  0.90625 0.25 0  0.9375 0.25 0  0.96875 0.25 0  1 0.25 0  0 0.28125 0  0.03125 0.28125 0  0.0625 0.28125 0  0.09375 0.28125 0  0.125 0.28125 0  0.15625 0.28125 0  0.1875 0.28125 0  0.21875 0.28125 0  0.25 0.28125 0  0.28125 0.28125 0  0.3125 0.28125 0  0.34375 0.28125 0  0.375 0.28125 0  0.40625 0.28125 0  0.4375 0.28125 0  0.46875 0.28125 0  0.5 0.28125 0  0.53125 0.28125 0  0.5625 0.28125 0  0.59375 0.28125 0  0.625 0.28125 0  0.65625 0.28125 0  0.6875 0.28125 0  0.71875 0.28125 0  0.75 0.28125 0  0.78125 0.28125 0  0.8125 0.28125 0  0.84375 0.28125 0  0.875 0.28125 0  0.90625 0.28125 0  0.9375 0.28125 0  0.96875 0.28125 0  1 0.28125 0  0 0.3125 0  0.03125 0.3125 0  0.0625 0.3125 0  0.09375 0.3125 0  0.125 0.3125 0  0.15625 0.3125 0  0.1875 0.3125 0  0.21875 0.3125 0  0.25 0.3125 0  0.28125 0.3125 0  0.3125 0.3125 0  0.34375 0.3125 0  0.375 0.3125 0  0.40625 0.3125 0  0.4375 0.3125 0  0.46875 0.3125 0  0.5 0.3125 0  0.53125 0.3125 0  0.5625 0.3125 0  0.59375 0.3125 0  0.625 0.3125 0  0.65625 0.3125 0  0.6875 0.3125 0  0.71875 0.3125 0  0.75 0.3125 0  0.78125 0.3125 0  0.8125 0.3125 0  0.84375 0.3125 0  0.875 0.3125 0  0.90625 0.3125 0  0.9375 0.3125 0  0.96875 0.3125 0  1 0.3125 0  0 0.34375 0  0.03125 0.34375 0  0.0625 0.34375 0  0.09375 0.34375 0  0.125 0.34375 0  0.15625 0.34375 0  0.1875 0.34375 0  0.21875 0.34375 0  0.25 0.34375 0  0.28125 0.34375 0  0.3125 0.34375 0  0.34375 0.34375 0  0.375 0.34375 0  0.40625 0.34375 0  0.4375 0.34375 0  0.46875 0.34375 0  0.5 0.34375 0  0.53125 0.34375 0  0.5625 0.34375 0  0.59375 0.34375 0  0.625 0.34375 0  0.65625 0.34375 0  0.6875 0.34375 0  0.71875 0.34375 0  0.75 0.34375 0  0.78125 0.34375 0  0.8125 0.34375 0  0.84375 0.34375 0  0.875 0.34375 0  0.90625 0.34375 0  0.9375 0.34375 0  0.96875 0.34375 0  1 0.34375 0  0 0.375 0  0.03125 0.375 0  0.0625 0.375 0  0.09375 0.375 0  0.125 0.375 0  0.15625 0.375 0  0.1875 0.375 0  0.21875 0.375 0  0.25 0.375 0  0.28125 0.375 0  0.3125 0.375 0  0.34375 0.375 0  0.375 0.375 0  0.40625 0.375 0  0.4375 0.375 0  0.46875 0.375 0  0.5 0.375 0  0.53125 0.375 0  0.5625 0.375 0  0.59375 0.375 0  0.625 0.375 0  0.65625 0.375 0  0.6875 0.375 0  0.71875 0.375 0  0.75 0.375 0  0.78125 0.375 0  0.8125 0.375 0  0.84375 0.375 0  0.875 0.375 0  0.90625 0.375 0  0.9375 0.375 0  0.96875 0.375 0  1 0.375 0  0 0.40625 0  0.03125 0.40625 0  0.0625 0.40625 0  0.09375 0.40625 0  0.125 0.40625 0  0.15625 0.40625 0  0.1875 0.40625 0  0.21875 0.40625 0  0.25 0.40625 0  0.28125 0.40625 0  0.3125 0.40625 0  0.34375 0.40625 0  0.375 0.40625 0  0.40625 0.40625 0  0.4375 0.40625 0  0.46875 0.40625 0  0.5 0.40625 0  0.53125 0.40625 0  0.5625 0.40625 0  0.59375 0.40625 0  0.625 0.40625 0  0.65625 0.40625 0  0.6875 0.40625 0  0.71875 0.40625 0  0.75 0.40625 0  0.78125 0.40625 0  0.8125 0.40625 0  0.84375 0.40625 0  0.875 0.40625 0  0.90625 0.40625 0  0.9375 0.40625 0  0.96875 0.40625 0  1 0.40625 0  0 0.4375 0  0.03125 0.4375 0  0.0625 0.4375 0  0.09375 0.4375 0  0.125 0.4375 0  0.15625 0.4375 0  0.1875 0.4375 0  0.21875 0.4375 0  0.25 0.4375 0  0.28125 0.4375 0  0.3125 0.4375 0  0.34375 0.4375 0  0.375 0.4375 0  0.40625 0.4375 0  0.4375 0.4375 0  0.46875 0.4375 0  0.5 0.4375 0  0.53125 0.4375 0  0.5625 0.4375 0  0.59375 0.4375 0  0.625 0.4375 0  0.65625 0.4375 0  0.6875 0.4375 0  0.71875 0.4375 0  0.75 0.4375 0  0.78125 0.4375 0  0.8125 0.4375 0  0.84375 0.4375 0  0.875 0.4375 0  0.90625 0.4375 0  0.9375 0.4375 0  0.96875 0.4375 0  1 0.4375 0  0 0.46875 0  0.03125 0.46875 0  0.0625 0.46875 0  0.09375 0.46875 0  0.125 0.46875 0  0.15625 0.46875 0  0.1875 0.46875 0  0.21875 0.46875 0  0.25 0.46875 0  0.28125 0.46875 0  0.3125 0.46875 0  0.34375 0.46875 0  0.375 0.46875 0  0.40625 0.46875 0  0.4375 0.46875 0  0.46875 0.46875 0  0.5 0.46875 0  0.53125 0.46875 0  0.5625 0.46875 0  0.59375 0.46875 0  0.625 0.46875 0  0.65625 0.46875 0  0.6875 0.46875 0  0.71875 0.46875 0  0.75 0.46875 0  0.78125 0.46875 0  0.8125 0.46875 0  0.84375 0.46875 0  0.875 0.46875 0  0.90625 0.46875 0  0.9375 0.46875 0  0.96875 0.46875 0  1 0.46875 0  0 0.5 0  0.03125 0.5 0  0.0625 0.5 0  0.09375 0.5 0  0.125 0.5 0  0.15625 0.5 0  0.1875 0.5 0  0.21875 0.5 0  0.25 0.5 0  0.28125 0.5 0  0.3125 0.5 0  0.34375 0.5 0  0.375 0.5 0  0.40625 0.5 0  0.4375 0.5 0  0.46875 0.5 0  0.5 0.5 0  0.53125 0.5 0  0.5625 0.5 0  0.59375 0.5 0  0.625 0.5 0  0.65625 0.5 0  0.6875 0.5 0  0.71875 0.5 0  0.75 0.5 0  0.78125 0.5 0  0.8125 0.5 0  0.84375 0.5 0  0.875 0.5 0  0.90625 0.5 0  0.9375 0.5 0  0.96875 0.5 0  1 0.5 0  0 0.53125 0  0.03125 0.53125 0  0.0625 0.53125 0  0.09375 0.53125 0  0.125 0.53125 0  0.15625 0.53125 0  0.1875 0.53125 0  0.21875 0.53125 0  0.25 0.53125 0  0.28125 0.53125 0  0.3125 0.53125 0  0.34375 0.53125 0  0.375 0.53125 0  0.40625 0.53125 0  0.4375 0.53125 0  0.46875 0.53125 0  0.5 0.53125 0  0.53125 0.53125 0  0.5625 0.53125 0  0.59375 0.53125 0  0.625 0.53125 0  0.65625 0.53125 0  0.6875 0.53125 0  0.71875 0.53125 0  0.75 0.53125 0  0.78125 0.531
[...]
<CellData  Scalars="f_36030"> 
<DataArray  type="Float64"  Name="f_36030"  format="ascii">1.5239617380064305e-09   1.6821882544181177e-09   7.6726576598039903e-11   1.9469255257478734e-10   1.1102611267154455e-11   1.9837303088568322e-11   2.9017976962117797e-12   5.5585107628175816e-12   1.3780110674314902e-12   2.4059355561146843e-12   9.5716173022865239e-13   1.4660310158095623e-12   7.4341145559431577e-13   1.1329448031208007e-12   5.7698562999682354e-13   9.4226421539836339e-13   4.5088404747489184e-13   7.8438625912089795e-13   3.8859301593342476e-13   6.5914452751257075e-13   4.1290394147522095e-13   5.9307248550316362e-13   5.3786347691232241e-13   6.1200690376196882e-13   7.6760698478310556e-13   7.3275936499876827e-13   1.0974604962252450e-12   9.6159795757246621e-13   1.5158410181648462e-12   1.2952250036321891e-12   2.0064605198048338e-12   1.7226676554367274e-12   2.5506827145678261e-12   2.2274920135050715e-12   3.1300310817105164e-12   2.7901371245791182e-12   3.7289521619834590e-12   3.3903367149031628e-12   4.3380814401811234e-12   4.0097143246945264e-12   4.9585390153572008e-12   4.6348065554180194e-12   5.6084073569723292e-12   5.2611469371602128e-12   6.3340443627035159e-12   5.9000220704144331e-12   7.2327240184134647e-12   6.5922534598156728e-12   8.5035373242127652e-12   7.4416330242314917e-12   1.0573392160293323e-11   8.7078097657950628e-12   1.4432041480462638e-11   1.1096199690107108e-11   2.2539192243693224e-11   1.6765314934799524e-11   4.1028802012378389e-11   3.3123527440531060e-11   8.6103511685136198e-11   8.6818483736124403e-11   4.1625199818310477e-10   2.4701724583145292e-10   3.1224711926496404e-08   1.0115227549790905e-09   2.5466576000035372e-10   1.2774774294377736e-10   4.7399182110392589e-11   4.5559356777347852e-11   1.7474933543048127e-11   2.8048369213354571e-11   8.1014349815606556e-12   1.3205286457863757e-11   4.0372633819088605e-12   5.6770909088417555e-12   2.3458867712553453e-12   2.9074662364926170e-12   1.5201238989561191e-12   1.7360281451490211e-12   1.0377906508989465e-12   1.1290570267091459e-12   7.3153238123865977e-13   7.6658119304676181e-13   5.5135465735871094e-13   5.4806290821432298e-13   4.8465093682529506e-13   4.4535198477953060e-13   5.2834254121832528e-13   4.5316595412560234e-13   6.7899303980098307e-13   5.7057962231230981e-13   9.2965852819930848e-13   7.9405160109672663e-13   1.2694773353055097e-12   1.1152579861313504e-12   1.6844575463719318e-12   1.5210722727497002e-12   2.1588252431273853e-12   1.9945381174687280e-12   2.6766600544544387e-12   2.5163069968845725e-12   3.2237089477637907e-12   3.0663037529878460e-12   3.7893623488634539e-12   3.6255558534785047e-12   4.3688547214135733e-12   4.1783008962297336e-12   4.9658405994252182e-12   4.7148153103630504e-12   5.5955777437010473e-12   5.2361782031196521e-12   6.2888286411284863e-12   5.7641071168132761e-12   7.0954905265119735e-12   6.3637699574584683e-12   8.0835409110088238e-12   7.1983460576032706e-12   9.3391402671683500e-12   8.6509205630947784e-12   1.1285055140456805e-11   1.1514559380538142e-11   1.9602029939195366e-11   1.6735218301099292e-11   9.7561071790518858e-11   2.2267649099068434e-11   6.7679788300419079e-10   3.5868540603413140e-11   5.2407711191278389e-10   3.0698807341246023e-10   3.6904099164278500e-11   2.9457333275011542e-11   3.8011308529540438e-11   2.6064067943608756e-11   1.4943770471690442e-11   1.3652785290603616e-11   7.9258316056183429e-12   1.0720020419931597e-11   4.7844207698355426e-12   7.0049178519413658e-12   2.9268252501838809e-12   4.1072811795839241e-12   1.7981558526631976e-12   2.3740120790344776e-12   1.1027726326504255e-12   1.3774804734245204e-12   6.7667887359187653e-13   7.9655624450317101e-13   4.3796794584552973e-13   4.6924699086525692e-13   3.4670122957359356e-13   3.2031436874631588e-13   3.8141173431084638e-13   3.1383605613415518e-13   5.2718591106732718e-13   4.2961466218537939e-13   7.7015034696488259e-13   6.5216760901959988e-13   1.0952798721167399e-12   9.6589561407505573e-13   1.4858881402537886e-12   1.3533077085649783e-12   1.9239312588850412e-12   1.7947718848091654e-12   2.3906277645155627e-12   2.2690076171184314e-12   2.8670542866865297e-12   2.7538984672660937e-12   3.3343981768746802e-12   3.2273935792077495e-12   3.7734553616795638e-12   3.6683926934991252e-12   4.1627373293269504e-12   4.0576344584116720e-12   4.4742327218958795e-12   4.3787635154264182e-12   4.6660750663156006e-12   4.6198316339720515e-12   4.6762274843486954e-12   4.7747301390520072e-12   4.4535626264770632e-12   4.8392470612074599e-12   4.2347227681636402e-12   4.7790471747883439e-12   6.0448582575968113e-12   4.4278419516204074e-12   1.9592932444605944e-11   3.6092090549061496e-12   7.0311926704303890e-11   5.9611817969007320e-12   1.2699063474687353e-10   3.8246318321137807e-11   1.2991886837345695e-10   1.3353125618076203e-10   1.2357934744356861e-11   1.0723942274217918e-11   1.8642724107452915e-11   1.2958966467776330e-11   1.2853468579095594e-11   8.3695468011768383e-12   7.2895359514815937e-12   6.5378304462174021e-12   4.5060857863602132e-12   5.2766791410673226e-12   2.8780165096290220e-12   3.7437674773183862e-12   1.7968398133340670e-12   2.3874279224958255e-12   1.0721297103464991e-12   1.4083812853209797e-12   6.0928790632067954e-13   7.7277853058971128e-13   3.4794792953422856e-13   4.0123376567998575e-13   2.4812201202453913e-13   2.3058474412046890e-13   2.8191772854860642e-13   2.1807218412100605e-13   4.2747940324116230e-13   3.3376852406227996e-13   6.6514077159112485e-13   5.5386540231792003e-13   9.7533368379490956e-13   8.5656801035332850e-13   1.3376469034827817e-12   1.2200219248710208e-12   1.7305088590512904e-12   1.6215090385894801e-12   2.1310738109196685e-12   2.0373345774003065e-12   2.5149530524052450e-12   2.4430046421900537e-12   2.8554492962709857e-12   2.8134088961963513e-12   3.1219711856985514e-12   3.1227829053324947e-12   3.2775091400721126e-12   3.3442323422051700e-12   3.2761047021553682e-12   3.4485343360335551e-12   3.0654196936817997e-12   3.4017614861861600e-12   2.6140793049567947e-12   3.1613251840128790e-12   2.0281621851052646e-12   2.6734704223009817e-12   1.9264787911633218e-12   1.9010047986806853e-12   4.3021575763769630e-12   1.0416089225330070e-12   1.2994503172438303e-11   1.5479828319160670e-12   2.8174211220118621e-11   8.9285385991166582e-12   3.9657884910131333e-11   3.2683561200551217e-11   6.7158219064092051e-11   6.2795500678388520e-11   5.7440934182700516e-12   5.1585169737921184e-12   7.7887447069807166e-12   6.1622382894670553e-12   7.9797940511262534e-12   5.0178727865895103e-12   5.7114404345124203e-12   3.9992523996620157e-12   3.7660924192902000e-12   3.3921172991501947e-12   2.4537965054941032e-12   2.6832080983037550e-12   1.5465106951844811e-12   1.8803487645823059e-12   9.1402157140615033e-13   1.1672043996688735e-12   4.9814949896872577e-13   6.4008661588293769e-13   2.6320889486576321e-13   3.1211422851582596e-13   1.8066655364024752e-13   1.6223963093924324e-13   2.2548097006701484e-13   1.6172049181349597e-13   3.7454009589392133e-13   2.8259508973224096e-13   6.0545739858195357e-13   4.9884513350774279e-13   8.9568423380541264e-13   7.8561143986243070e-13   1.2219543147334336e-12   1.1183351428443938e-12   1.5599485775345834e-12   1.4722592376429857e-12   1.8840048370684666e-12   1.8222468075353868e-12   2.1667001381544636e-12   2.1427505484945945e-12   2.3782176306412888e-12   2.4077652878679936e-12   2.4856780707080636e-12   2.5906388303228229e-12   2.4533795409975853e-12   2.6637229356320589e-12   2.2469259567000948e-12   2.5981612428169181e-12   1.8492135466559604e-12   2.3651785872963292e-12   1.3066587730891515e-12   1.9439280640330624e-12   8.3794395908659823e-13   1.3530526080234812e-12   1.0213692185715522e-12   7.5744013136266209e-13   2.8982514271017505e-12   7.6821864050666537e-13   7.3801518815185234e-12   3.0299697158678494e-12   1.4047172766307052e-11   1.0392495594438681e-11   2.4149435174929376e-11   2.3705518803924752e-11   3.9848833377087681e-11   3.5377471541556820e-11   3.1442270440627267e-12   2.9926287828917357e-12   3.5293543523026246e-12   3.1210373274466919e-12   4.1835996982353175e-12   2.8071349172483519e-12   3.6744309158918059e-12   2.3664522157497640e-12   2.7090707059995760e-12   2.0322906819025847e-12   1.8365092752565050e-12   1.6772393436005853e-12   1.1641091208282346e-12   1.2419940800285640e-12   6.7756974047859434e-13   8.0122391623443019e-13   3.5594133132574090e-13   4.4196251918909544e-13   1.8192428641181863e-13   2.0962367324340212e-13   1.3778085772435254e-13   1.1279168014739618e-13   2.0392213052682225e-13   1.3985060659133595e-13   3.5913350655795747e-13   2.7041131827949984e-13   5.8098211822491805e-13   4.8083714816793012e-13   8.4605675133590484e-13   7.4643981870768928e-13   1.1300796634968096e-12   1.0422520024527332e-12   1.4079535788463799e-12   1.3433188686974832e-12   1.6537740251559704e-12   1.6248752108510337e-12   1.8408651034396610e-12   1.8625177289829848e-12   1.9420540300258586e-12   2.0324166793950921e-12   1.9307990765536190e-12   2.1116886609237184e-12   1.7846444806156966e-12   2.0793327672886857e-12   1.4941158100079398e-12   1.9188626886721546e-12   1.0826930038867886e-12   1.6255868672174090e-12   6.4528084510182732e-13   1.2257469577806702e-12   4.0599103920487307e-13   8.2316037629639065e-13   7.6266926528829821e-13   6.9868625664468408e-13   2.2223107087272333e-12   1.4687453156480106e-12   5.1900130678262686e-12   4.1580978003577465e-12   1.0067956368980272e-11   9.6583325608107505e-12   1.7777366659674416e-11   1.7065402676240989e-11   2.6194055364774679e-11   2.2914203400421990e-11   2.0413601577109722e-12   2.0922180238306629e-12   1.7997210456872842e-12   1.7844296206252042e-12   2.0632433856262553e-12   1.5535726222039287e-12   2.0395601763555107e-12   1.3336602238661520e-12   1.6663082399536526e-12   1.1425460605443299e-12   1.1878522890774818e-12   9.4560517017427606e-13   7.5814926209091762e-13   7.1082255935266739e-13   4.3091907574093604e-13   4.6351847876990034e-13   2.1851366281709443e-13   2.5498188745909260e-13   1.1865662157981866e-13   1.2516216197040067e-13   1.2168928405538257e-13   9.1115681529926119e-14   2.1279927813013206e-13   1.5099627091387518e-13   3.7348888814988060e-13   2.9127165421031218e-13   5.8279597157007499e-13   4.9227728119091126e-13   8.1822757471343771e-13   7.3156758517683094e-13   1.0564431480742241e-12   9.8576482061339557e-13   1.2737884057263140e-12   1.2316010112552088e-12   1.4468130299989324e-12   1.4465982801260764e-12   1.5529757796945974e-12   1.6096541884983954e-12   1.5719128045796973e-12   1.7017545033279218e-12   1.4879806331574044e-12   1.7071492882009310e-12   1.2953258014278473e-12   1.6156714026716006e-12   1.0073754358529557e-12   1.4276166549543157e-12   6.7277125383929145e-13   1.1639920987009360e-12   3.9756821631811209e-13   8.8698694628935572e-13   3.6587128023224328e-13   7.3655295359382593e-13   8.3846944336171296e-13   9.8147530758746006e-13   2.1122862379539739e-12   2.0481986845252022e-12   4.4839795474272980e-12   4.4111411603275135e-12   8.2786958883939333e-12   8.1854705788320125e-12   1.3556737528115745e-11   1.2571828318076842e-11   1.8527795394771349e-11   1.6122193294571693e-11   1.6559215267337746e-12   1.8119431329335357e-12   1.1311173645796020e-12   1.2717162032443116e-12   1.0501255244519015e-12   9.5754699146132269e-13   1.0339148350429213e-12   7.6471867991171430e-13   8.9157536879846577e-13   6.2297760699413405e-13   6.5858503579792219e-13   4.9591958845379916e-13   4.2037476442189910e-13   3.6407948495675041e-13   2.3298286656621887e-13   2.3513187423512127e-13   1.2120353879313566e-13   1.3460539556146376e-13   9.1066044217871356e-14   8.7485052569516738e-14   1.3781599269577244e-13   1.0727664170107711e-13   2.4990374853900817e-13   1.9436174710316691e-13   4.1130134838681802e-13   3.3896621978466856e-13   6.0315865682768080e-13   5.2496114958310276e-13   8.0509525901254046e-13   7.3295077062773539e-13   9.9624838433576254e-13   9.4242637230469032e-13   1.1561955982561982e-12   1.1332274480850821e-12   1.2659123245063775e-12   1.2866169052523025e-12   1.3089986531557837e-12   1.3862482709260863e-12   1.2735339233650060e-12   1.4193147983988565e-12   1.1550900488418410e-12   1.3782844795429583e-12   9.6158977148563655e-13   1.2638849511654465e-12   7.2061579193841903e-13   1.0904296185899430e-12   4.8898067979794390e-13   8.9504870819217309e-13   3.6221164607174120e-13   7.5225135021786134e-13   4.7828687213626668e-13   7.9248130715843558e-13   1.0090586627652648e-12   1.2138312938595776e-12   2.1412471113608640e-12   2.2566439654731535e-12   4.0576703614896714e-12   4.0945776539649303e-12   6.8791609619254509e-12   6.6384013965000983e-12   1.0426279089932792e-11   9.4073225678539053e-12   1.3675544606705674e-11   1.1806180751922663e-11   1.6799034935210759e-12   1.8922437037619045e-12   9.9532518000370499e-13   1.2032868757866151e-12   6.8107407350778776e-13   7.8256623808038394e-13   5.5375138845501135e-13   5.4198950322024655e-13   4.5133844119001291e-13   3.9182126323020688e-13   3.2953103653502061e-13   2.8514359072709838e-13   2.0964098054960836e-13   2.0077691415716860e-13   1.2255151149083297e-13   1.3663389031553395e-13   8.7554688241842228e-14   1.0233267192672679e-13   1.1088970963240272e-13   1.0952857048180713e-13   1.8913386496532360e-13   1.6468196962838762e-13   3.1236551392517691e-13   2.6638192339690325e-13   4.6647540441783010e-13   4.0605084145793821e-13   6.3490742641896280e-13   5.7009397980829086e-13   8.0006337971231957e-13   7.4220895238133871e-13   9.4450946616992156e-13   9.0533750782625075e-13   1.0521000503253342e-12   1.0431978396551131e-12   1.1091577495840701e-12   1.1415287877579844e-12   1.1058947966941626e-12   1.1892484926452174e-12   1.0383133571899821e-12   1.1797808858682016e-12   9.1084888061259278e-13   1.1128845086744350e-12   7.3994197782313947e-13   9.9743491942684269e-13   5.5839964426991444e-13   8.5569586486322524e-13   4.1968095079696633e-13   7.2942635870375593e-13   4.0018513810887410e-13   6.8713058364218508e-13   5.9700604633700811e-13   8.2886820105532237e-13   1.1199425835381666e-12   1.2796279285009130e-12   2.0791738486844946e-12   2.1569909197671733e-12   3.5648994912665596e-12   3.5048833631456523e-12   5.5935988899117352e-12   5.2197527126413968e-12   8.0051388680956875e-12   7.0452757331297677e-12   1.0283886383242888e-11   8.7457047035426119e-12   1.9612062428359803e-12   2.1963782121767822e-12   1.1640640130244584e-12   1.3924066637201982e-12   6.9022768815190542e-13   8.7245022175147444e-13   4.4338830997686737e-13   5.6308958884053750e-13   3.0427490412617115e-13   3.7664348868543695e-13   2.0947605625518977e-13   2.6140939938737607e-13   1.4421752502289885e-13   1.9101844526183265e-13   1.1401680510379811e-13   1.5548980109617396e-13   1.2567614708051111e-13   1.5392390038747360e-13   1.8042401658948850e-13   1.8814544133512307e-13   2.7335003689072172e-13   2.5804585418961010e-13   3.9481046364315904e-13   3.5933536690946312e-13   5.3209066584793900e-13   4.8340768920233844e-13   6.7090430144012554e-13   6.1845318739411339e-13   7.9670564542692992e-13   7.5102751074926371e-13   8.9587196220167166e-13   8.6760816200202710e-13   9.5682895624836692e-13   9.5596461771694889e-13   9.7120758065091896e-13   1.0063502589387906e-12   9.3513611540368766e-13   1.0126231416198706e-12   8.5077011121396879e-13   9.7346074600324181e-13   7.2811336170985565e-13   8.9387301981403047e-13   5.8704024682191961e-13   7.8722061918917566e-13   4.5915331173427977e-13   6.7783062665248119e-13   3.8873003688893019e-13   6.0389392467075658e-13   4.3174293759637413e-13   6.1936089688413131e-13   6.5218990325250639e-13   7.9187319005580690e-13   1.1158449405556317e-12   1.1920229422661689e-12   1.8815385013967894e-12   1.8700212702581557e-12   2.9863610574337155e-12   2.8237714244639460e-12   4.4174570338881259e-12   3.9785494181912016e-12   6.0816238160196663e-12   5.2063079273169453e-12   7.7435936756950949e-12   6.4271231753592840e-12   2.4037948941936087e-12   2.6331508561751388e-12   1.5146386959020087e-12   1.7302955946916238e-12   9.2470327126858822e-13   1.1237058323369487e-12   5.7540990616542756e-13   7.4550138892921956e-13   3.7661973068055906e-13   5.1306629297535731e-13   2.6532994554377706e-13   3.7358177566829491e-13   2.1046308488061146e-13   2.9624142564158577e-13   2.0016454626687059e-13   2.6470678407421564e-13   2.2933023997506124e-13   2.7071682498650264e-13   2.9272033813448048e-13   3.0925575826850256e-13   3.8264977889281118e-13   3.7528827725759341e-13   4.8900803747742675e-13   4.6205495541135979e-13   6.0013617307975324e-13   5.6071368214300574e-13   7.0391150278293783e-13   6.6090085085704628e-13   7.8882254334174055e-13   7.5175744375090721e-13   8.4498473448110854e-13   8.2308209230673327e-13   8.6510456015297268e-13   8.6642807189138899e-13   8.4541955847246840e-13   8.7608877521976716e-13   7.8664320781092445e-13   8.5000105562418780e-13   6.9492122255925520e-13   7.9064313119433963e-13   5.8274518735071689e-13   7.0601358700608824e-13   4.6966033630376792e-13   6.1072887682113235e-13   3.8246159721283177e-13   5.2711613980331195e-13   3.5446766712695155e-13   4.8583081515686437e-13   4.2353421068842596e-13   5.2495872236323486e-13   6.2880959859475897e-13   6.8595051944714444e-13   1.0066031186906691e-12   1.0047715188553801e-12   1.5853588478163770e-12   1.4986289899484896e-12   2.3783964499433931e-12   2.1535009691509088e-12   3.3740079225969794e-12   2.9232868688078863e-12   4.5326347576534290e-12   3.7482360738570597e-12   5.7649059188369733e-12   4.6172505519872629e-12   2.9339894581306383e-12   3.1315821911507066e-12   1.9663664453990573e-12   2.1429542608896545e-12   1.2880031663811750e-12   1.4635998078724526e-12   8.5585356805873810e-13   1.0243922404666753e-12   5.9567479955105264e-13   7.4564910745264059e-13   4.4852155168339356e-13   5.7449650732571469e-13   3.7699374340932173e-13   4.7715257985485783e-13   3.5931484085928773e-13   4.3273018063308989e-13   3.8185427164748603e-13   4.2797417871774214e-13   4.3388208352969952e-13   4.5339260128712028e-13   5.0503447070986782e-13   5.0074964229191540e-13   5.8463414985610539e-13   5.6172869827796903e-13   6.6196414237354097e-13   6.2753711334237957e-13   7.2693152275128495e-13   6.8918088172643271e-13   7.7084225367586711e-13   7.3812623431146881e-13   7.8716468893879629e-13   7.6710929955598783e-13   7.7223031116704844e-13   7.7093294462574356e-13   7.2584801753900390e-13   7.4716990406195005e-13   6.5181183416854359e-13   6.9675355332232313e-13   5.5826535902024680e-13   6.2447292200473723e-13   4.5785015242804864e-13   5.3938850240815554e-13   3.6751810843961822e-13   4.5513497607658773e-13   3.0785681763015799e-13   3.8995469789411540e-13   3.0181214735947069e-13   3.6610258143863919e-13   3.7284148348285173e-13   4.0803336717043355e-13   5.4276221201478382e-13   5.3872777707357246e-13   8.2967484147237515e-13   7.7403278620523402e-13   1.2460953505263238e-12   1.1163943387859461e-12   1.7971287365527200e-12   1.5516187040012979e-12   2.4796326567771658e-12   2.0535945874071382e-12   3.2872416844079252e-12   2.5978444970424048e-12   4.2031996464461650e-12   3.2031019823139523e-12   3.4894459450175934e-12   3.6326801314598338e-12   2.4581625419180459e-12   2.5746372956618029e-12   1.7125387890511620e-12   1.8379756219645045e-12   1.2152316370136743e-12   1.3487841060664774e-12   8.9940264011447385e-13   1.0278797839713272e-12   7.0946433176167368e-13   8.2246034654823055e-13   6.0613931584987760e-13   6.9715619286953566e-13   5.6283530958326652e-13   6.2840378502469836e-13   5.6095271390576215e-13   6.0000437258463935e-13   5.8618937578973695e-13   5.9991435284109086e-13   6.2638179324490065e-13   6.1819010563709256e-13   6.7062361362519938e-13   6.4587733398347492e-13   7.0918809382004806e-13   6.7462386031081321e-13   7.3385947338884580e-13   6.9680079776076683e-13   7.38416444