<?xml version="1.0"?>
<VTKFile type="UnstructuredGrid"  version="0.1"  >
<UnstructuredGrid>
<Piece  NumberOfPoints="81" NumberOfCells="128">
<Points>
<DataArray  type="Float64"  NumberOfComponents="3"  format="ascii">0 0 0  0.125 0 0  0.25 0 0  0.375 0 0  0.5 0 0  0.625 0 0  0.75 0 0  0.875 0 0  1 0 0  0 0.125 0  0.125 0.125 0  0.25 0.125 0  0.375 0.125 0  0.5 0.125 0  0.625 0.125 0  0.75 0.125 0  0.875 0.125 0  1 0.125 0  0 0.25 0  0.125 0.25 0  0.25 0.25 0  0.375 0.25 0  0.5 0.25 0  0.625 0.25 0  0.75 0.25 0  0.875 0.25 0  1 0.25 0  0 0.375 0  0.125 0.375 0  0.25 0.375 0  0.375 0.375 0  0.5 0.375 0  0.625 0.375 0  0.75 0.375 0  0.875 0.375 0  1 0.375 0  0 0.5 0  0.125 0.5 0  0.25 0.5 0  0.375 0.5 0  0.5 0.5 0  0.625 0.5 0  0.75 0.5 0  0.875 0.5 0  1 0.5 0  0 0.625 0  0.125 0.625 0  0.25 0.625 0  0.375 0.625 0  0.5 0.625 0  0.625 0.625 0  0.75 0.625 0  0.875 0.625 0  1 0.625 0  0 0.75 0  0.125 0.75 0  0.25 0.75 0  0.375 0.75 0  0.5 0.75 0  0.625 0.75 0  0.75 0.75 0  0.875 0.75 0  1 0.75 0  0 0.875 0  0.125 0.875 0  0.25 0.875 0  0.375 0.875 0  0.5 0.875 0  0.625 0.875 0  0.75 0.875 0  0.875 0.875 0  1 0.875 0  0 1 0  0.125 1 0  0.25 1 0  0.375 1 0  0.5 1 0  0.625 1 0  0.75 1 0  0.875 1 0  1 1 0  </DataArray>
</Points>
<Cells>
<DataArray  type="UInt32"  Name="connectivity"  format="ascii">0 1 10  0 9 10  1 2 11  1 10 11  2 3 12  2 11 12  3 4 13  3 12 13  4 5 14  4 13 14  5 6 15  5 14 15  6 7 16  6 15 16  7 8 17  7 16 17  9 10 19  9 18 19  10 11 20  10 19 20  11 12 21  11 20 21  12 13 22  12 21 22  13 14 23  13 22 23  14 15 24  14 23 24  15 16 25  15 24 25  16 17 26  16 25 26  18 19 28  18 27 28  19 20 29  19 28 29  20 21 30  20 29 30  21 22 31  21 30 31  22 23 32  22 31 32  23 24 33  23 32 33  24 25 34  24 33 34  25 26 35  25 34 35  27 28 37  27 36 37  28 29 38  28 37 38  29 30 39  29 38 39  30 31 40  30 39 40  31 32 41  31 40 41  32 33 42  32 41 42  33 34 43  33 42 43  34 35 44  34 43 44  36 37 46  36 45 46  37 38 47  37 46 47  38 39 48  38 47 48  39 40 49  39 48 49  40 41 50  40 49 50  41 42 51  41 50 51  42 43 52  42 51 52  43 44 53  43 52 53  45 46 55  45 54 55  46 47 56  46 55 56  47 48 57  47 56 57  48 49 58  48 57 58  49 50 59  49 58 59  50 51 60  50 59 60  51 52 61  51 60 61  52 53 62  52 61 62  54 55 64  54 63 64  55 56 65  55 64 65  56 57 66  56 65 66  57 58 67  57 66 67  58 59 68  58 67 68  59 60 69  59 68 69  60 61 70  60 69 70  61 62 71  61 70 71  63 64 73  63 72 73  64 65 74  64 73 74  65 66 75  65 74 75  66 67 76  66 75 76  67 68 77  67 76 77  68 69 78  68 77 78  69 70 79  69 78 79  70 71 80  70 79 80  </DataArray>
<DataArray  type="UInt32"  Name="offsets"  format="ascii">3 6 9 12 15 18 21 24 27 30 33 36 39 42 45 48 51 54 57 60 63 66 69 72 75 78 81 84 87 90 93 96 99 102 105 108 111 114 117 120 123 126 129 132 135 138 141 144 147 150 153 156 159 162 165 168 171 174 177 180 183 186 189 192 195 198 201 204 207 210 213 216 219 222 225 228 231 234 237 240 243 246 249 252 255 258 261 264 267 270 273 276 279 282 285 288 291 294 297 300 303 306 309 312 315 318 321 324 327 330 333 336 339 342 345 348 351 354 357 360 363 366 369 372 375 378 381 384 </DataArray>
<DataArray  type="UInt8"  Name="types"  format="ascii">5 5 5 5 5 5 5 5 5 5 5 5 5 5 5 5 5 5 5 5 5 5 5 5 5 5 5 5 5 5 5 5 5 5 5 5 5 5 5 5 5 5 5 5 5 5 5 5 5 5 5 5 5 5 5 5 5 5 5 5 5 5 5 5 5 5 5 5 5 5 5 5 5 5 5 5 5 5 5 5 5 5 5 5 5 5 5 5 5 5 5 5 5 5 5 5 5 5 5 5 5 5 5 5 5 5 5 5 5 5 5 5 5 5 5 5 5 5 5 5 5 5 5 5 5 5 5 5 </DataArray>
</Cells>
<CellData  Scalars="f_34860"> 
<DataArray  type="Float64"  Name="f_34860"  format="ascii">2.0129348804092491e-03   3.0978883992434582e-03   6.1414809462514977e-03   4.6538084685698805e-03   1.0715680876382283e-02   8.0245379883980353e-03   1.3055145734563331e-02   1.1245702150550428e-02   1.1788747602358466e-02   1.2431444034959452e-02   7.6577975684465997e-03   1.0887545090309135e-02   3.0843390140263562e-03   7.5174108112361247e-03   7.3524022734734349e-04   4.3010300858030738e-03   5.3750137379619447e-03   8.3211587417376092e-03   6.7148179978600052e-03   7.5758326517017917e-03   8.0514591633658698e-03   6.9663510766658464e-03   8.5846340105402864e-03   6.8310645892975192e-03   8.0014192532657374e-03   7.2502395467268447e-03   6.6444920703352681e-03   7.9785127102620819e-03   5.3134461215332491e-03   8.5883197935204981e-03   4.7785977149151183e-03   8.7460670157454429e-03   1.0080644291810539e-02   1.2790408593101012e-02   7.9457453156047755e-03   1.0009375879507242e-02   5.1795799891943403e-03   5.7945141550129345e-03   3.3730581800102840e-03   2.5733021759009808e-03   3.5854665655796450e-03   2.2317348951139660e-03   5.6936804076873800e-03   4.9700394877011268e-03   8.4667497065378083e-03   9.1847013883829751e-03   1.0292496597967073e-02   1.2443516480266372e-02   1.3376560585661499e-02   1.3888423410101158e-02   9.0942311949094943e-03   1.0513317647236738e-02   3.7432857030643093e-03   5.1676485137601841e-03   4.2159213451361198e-04   9.3116472205912327e-04   1.0765265379073738e-03   2.8241807149978639e-04   5.3252423487857381e-03   3.6017864093060240e-03   1.0682070261158054e-02   8.9464953625746739e-03   1.4045094721746762e-02   1.3224504493585310e-02   1.3331451675305528e-02   1.0972269306049156e-02   9.4894694734817958e-03   8.7928423597075315e-03   4.5849073684436576e-03   5.4540145653106178e-03   1.4569872532049382e-03   2.8677690717675368e-03   1.9389681276519089e-03   2.5453991460582378e-03   5.7488300517072937e-03   4.6760486471656296e-03   1.0657061884041946e-02   8.0129783520089225e-03   1.3834730531998372e-02   1.0631600150021184e-02   9.9710775112648864e-03   5.7501038069810136e-03   8.8995848013778463e-03   5.8579718053317995e-03   7.2118122268448751e-03   6.4869005630704031e-03   5.8730573614691559e-03   7.2488513623478450e-03   5.6672564430778616e-03   7.6953313393373843e-03   6.7155473014159674e-03   7.5643222090794118e-03   8.4059789836624533e-03   6.9319147820096905e-03   9.7837063338427916e-03   6.1832498916820650e-03   5.2623899554096396e-03   1.2838850681278946e-03   7.6697227360255594e-03   3.4308498276445741e-03   1.0086715534473602e-02   7.6607924992464823e-03   1.1084801231140896e-02   1.1509267904825793e-02   1.0078604256057484e-02   1.2718591494151001e-02   7.6585802597540550e-03   1.0579065850128359e-02   5.2454187193082570e-03   6.3417271520234686e-03   4.2654518285176104e-03   2.4859970344042396e-03   1.9682173499875407e-03   1.8616702815222165e-04   6.5454877125776974e-03   2.9181573669925199e-03   1.1562083071172227e-02   8.2948154382847597e-03   1.4078098893261134e-02   1.3183739626412776e-02   1.2619858736400803e-02   1.4719275126131288e-02   8.0412527910157551e-03   1.2001601123159558e-02   3.0234263512084010e-03   6.6227517400591820e-03   5.1328670063783644e-04   1.7331392316235466e-03   </DataArray> 
</CellData> 
</Piece>
</UnstructuredGrid>
</VTKFile>