<?xml version="1.0"?>
<VTKFile type="UnstructuredGrid"  version="0.1"  >
<UnstructuredGrid>
<Piece  NumberOfPoints="25" NumberOfCells="32">
<Points>
<DataArray  type="Float64"  NumberOfComponents="3"  format="ascii">0 0 0  0.25 0 0  0.5 0 0  0.75 0 0  1 0 0  0 0.25 0  0.25 0.25 0  0.5 0.25 0  0.75 0.25 0  1 0.25 0  0 0.5 0  0.25 0.5 0  0.5 0.5 0  0.75 0.5 0  1 0.5 0  0 0.75 0  0.25 0.75 0  0.5 0.75 0  0.75 0.75 0  1 0.75 0  0 1 0  0.25 1 0  0.5 1 0  0.75 1 0  1 1 0  </DataArray>
</Points>
<Cells>
<DataArray  type="UInt32"  Name="connectivity"  format="ascii">0 1 6  0 5 6  1 2 7  1 6 7  2 3 8  2 7 8  3 4 9  3 8 9  5 6 11  5 10 11  6 7 12  6 11 12  7 8 13  7 12 13  8 9 14  8 13 14  10 11 16  10 15 16  11 12 17  11 16 17  12 13 18  12 17 18  13 14 19  13 18 19  15 16 21  15 20 21  16 17 22  16 21 22  17 18 23  17 22 23  18 19 24  18 23 24  </DataArray>
<DataArray  type="UInt32"  Name="offsets"  format="ascii">3 6 9 12 15 18 21 24 27 30 33 36 39 42 45 48 51 54 57 60 63 66 69 72 75 78 81 84 87 90 93 96 </DataArray>
<DataArray  type="UInt8"  Name="types"  format="ascii">5 5 5 5 5 5 5 5 5 5 5 5 5 5 5 5 5 5 5 5 5 5 5 5 5 5 5 5 5 5 5 5 </DataArray>
</Cells>
<CellData  Scalars="f_36170"> 
<DataArray  type="Float64"  Name="f_36170"  format="ascii">2.0533931601520790e-02   2.1502987747232451e-02   1.6631799349732329e-02   3.3087774234617159e-02   3.9310749892946320e-03   2.0120702374024513e-02   6.2393944791613526e-03   1.1380997488171934e-02   7.6014300001751703e-02   6.0012040045676049e-02   2.7955899497036706e-02   2.6919155543115431e-02   1.3988375898828471e-02   1.3046683192235169e-02   4.6946552005114273e-02   6.3377629379332029e-02   6.3872348646613605e-02   4.7336914479206502e-02   1.3115984334614250e-02   1.4039791884029778e-02   2.6608931996574204e-02   2.7639663592158616e-02   6.0309670961948052e-02   7.6329455402309121e-02   1.1788934319855646e-02   6.6650945797976143e-03   1.9885964302039490e-02   3.7981564382421982e-03   3.3070539275498592e-02   1.6608337593691670e-02   2.1997446030160243e-02   2.1024601377908798e-02   </DataArray> 
</CellData> 
</Piece>
</UnstructuredGrid>
</VTKFile>