<?xml version="1.0"?>
<VTKFile type="UnstructuredGrid"  version="0.1"  >
<UnstructuredGrid>
<Piece  NumberOfPoints="81" NumberOfCells="128">
<Points>
<DataArray  type="Float64"  NumberOfComponents="3"  format="ascii">0 0 0  0.125 0 0  0.25 0 0  0.375 0 0  0.5 0 0  0.625 0 0  0.75 0 0  0.875 0 0  1 0 0  0 0.125 0  0.125 0.125 0  0.25 0.125 0  0.375 0.125 0  0.5 0.125 0  0.625 0.125 0  0.75 0.125 0  0.875 0.125 0  1 0.125 0  0 0.25 0  0.125 0.25 0  0.25 0.25 0  0.375 0.25 0  0.5 0.25 0  0.625 0.25 0  0.75 0.25 0  0.875 0.25 0  1 0.25 0  0 0.375 0  0.125 0.375 0  0.25 0.375 0  0.375 0.375 0  0.5 0.375 0  0.625 0.375 0  0.75 0.375 0  0.875 0.375 0  1 0.375 0  0 0.5 0  0.125 0.5 0  0.25 0.5 0  0.375 0.5 0  0.5 0.5 0  0.625 0.5 0  0.75 0.5 0  0.875 0.5 0  1 0.5 0  0 0.625 0  0.125 0.625 0  0.25 0.625 0  0.375 0.625 0  0.5 0.625 0  0.625 0.625 0  0.75 0.625 0  0.875 0.625 0  1 0.625 0  0 0.75 0  0.125 0.75 0  0.25 0.75 0  0.375 0.75 0  0.5 0.75 0  0.625 0.75 0  0.75 0.75 0  0.875 0.75 0  1 0.75 0  0 0.875 0  0.125 0.875 0  0.25 0.875 0  0.375 0.875 0  0.5 0.875 0  0.625 0.875 0  0.75 0.875 0  0.875 0.875 0  1 0.875 0  0 1 0  0.125 1 0  0.25 1 0  0.375 1 0  0.5 1 0  0.625 1 0  0.75 1 0  0.875 1 0  1 1 0  </DataArray>
</Points>
<Cells>
<DataArray  type="UInt32"  Name="connectivity"  format="ascii">0 1 10  0 9 10  1 2 11  1 10 11  2 3 12  2 11 12  3 4 13  3 12 13  4 5 14  4 13 14  5 6 15  5 14 15  6 7 16  6 15 16  7 8 17  7 16 17  9 10 19  9 18 19  10 11 20  10 19 20  11 12 21  11 20 21  12 13 22  12 21 22  13 14 23  13 22 23  14 15 24  14 23 24  15 16 25  15 24 25  16 17 26  16 25 26  18 19 28  18 27 28  19 20 29  19 28 29  20 21 30  20 29 30  21 22 31  21 30 31  22 23 32  22 31 32  23 24 33  23 32 33  24 25 34  24 33 34  25 26 35  25 34 35  27 28 37  27 36 37  28 29 38  28 37 38  29 30 39  29 38 39  30 31 40  30 39 40  31 32 41  31 40 41  32 33 42  32 41 42  33 34 43  33 42 43  34 35 44  34 43 44  36 37 46  36 45 46  37 38 47  37 46 47  38 39 48  38 47 48  39 40 49  39 48 49  40 41 50  40 49 50  41 42 51  41 50 51  42 43 52  42 51 52  43 44 53  43 52 53  45 46 55  45 54 55  46 47 56  46 55 56  47 48 57  47 56 57  48 49 58  48 57 58  49 50 59  49 58 59  50 51 60  50 59 60  51 52 61  51 60 61  52 53 62  52 61 62  54 55 64  54 63 64  55 56 65  55 64 65  56 57 66  56 65 66  57 58 67  57 66 67  58 59 68  58 67 68  59 60 69  59 68 69  60 61 70  60 69 70  61 62 71  61 70 71  63 64 73  63 72 73  64 65 74  64 73 74  65 66 75  65 74 75  66 67 76  66 75 76  67 68 77  67 76 77  68 69 78  68 77 78  69 70 79  69 78 79  70 71 80  70 79 80  </DataArray>
<DataArray  type="UInt32"  Name="offsets"  format="ascii">3 6 9 12 15 18 21 24 27 30 33 36 39 42 45 48 51 54 57 60 63 66 69 72 75 78 81 84 87 90 93 96 99 102 105 108 111 114 117 120 123 126 129 132 135 138 141 144 147 150 153 156 159 162 165 168 171 174 177 180 183 186 189 192 195 198 201 204 207 210 213 216 219 222 225 228 231 234 237 240 243 246 249 252 255 258 261 264 267 270 273 276 279 282 285 288 291 294 297 300 303 306 309 312 315 318 321 324 327 330 333 336 339 342 345 348 351 354 357 360 363 366 369 372 375 378 381 384 </DataArray>
<DataArray  type="UInt8"  Name="types"  format="ascii">5 5 5 5 5 5 5 5 5 5 5 5 5 5 5 5 5 5 5 5 5 5 5 5 5 5 5 5 5 5 5 5 5 5 5 5 5 5 5 5 5 5 5 5 5 5 5 5 5 5 5 5 5 5 5 5 5 5 5 5 5 5 5 5 5 5 5 5 5 5 5 5 5 5 5 5 5 5 5 5 5 5 5 5 5 5 5 5 5 5 5 5 5 5 5 5 5 5 5 5 5 5 5 5 5 5 5 5 5 5 5 5 5 5 5 5 5 5 5 5 5 5 5 5 5 5 5 5 </DataArray>
</Cells>
<CellData  Scalars="f_47751"> 
<DataArray  type="Float64"  Name="f_47751"  format="ascii">4.4199178399764093e-05   4.0023598891190064e-05   3.2089223279361279e-05   2.8359675996264761e-05   1.4875555012725246e-05   1.2914215523317507e-05   2.6406332603502165e-06   2.2281104546668270e-06   2.5509761716913177e-06   2.5145647652599400e-06   1.4659193657769308e-05   1.3601814381900458e-05   3.1876460269056454e-05   2.9055289475422445e-05   4.4100338658603596e-05   3.8801622968857405e-05   4.1981746898189886e-05   2.4276139831303216e-05   3.5350656691009953e-05   1.8383003055463509e-05   2.4927030708916615e-05   1.4264651770694843e-05   1.6290577648652637e-05   1.3222634084562481e-05   1.4455806651787859e-05   1.5807103809938469e-05   2.0494376748479762e-05   2.0503695672720476e-05   3.0921639764510815e-05   2.4585597108605300e-05   3.8619874657854889e-05   2.4215456616585496e-05   2.8941357039667589e-05   7.6572347609682366e-06   3.2760887996954226e-05   9.3779565927261553e-06   3.5327924360960099e-05   1.8336629871982309e-05   3.4011809034192081e-05   2.8353127516875386e-05   2.9533574874183877e-05   3.3542192484287344e-05   2.4515519891338799e-05   3.0866416105053014e-05   2.1912128261313015e-05   2.1894836902024553e-05   2.1840419098126775e-05   1.0938256950217525e-05   1.4326653204144165e-05   3.4095317113670737e-08   2.7696282999209753e-05   6.6710756925058378e-06   4.1351282596677326e-05   2.2987700302292808e-05   4.6391517519917244e-05   3.9356487084451312e-05   3.9844452540601678e-05   4.6197308890502618e-05   2.5545763457559792e-05   3.9502974160867745e-05   1.1862906516703585e-05   2.3195040354106095e-05   5.9130669870886216e-06   6.8490153160659797e-06   6.8509372887108018e-06   5.8867331843109416e-06   2.3196256932060228e-05   1.1860811178099645e-05   3.9504984775253788e-05   2.5545803588563161e-05   4.6199463864225604e-05   3.9846325813237742e-05   3.9358433867172514e-05   4.6393559910671566e-05   2.2989490664934525e-05   4.1351903297772909e-05   6.6728790220399135e-06   2.7694739436380388e-05   3.2126063740019158e-08   1.4300362765212650e-05   1.0912741033864137e-05   2.1791484930577964e-05   2.1895500496030389e-05   2.1910414567371346e-05   3.0869457585017253e-05   2.4516402558575952e-05   3.3546983623969486e-05   2.9537576400267189e-05   2.8357874317212860e-05   3.4016466850512961e-05   1.8339670079790498e-05   3.5329931233734581e-05   9.3781329187153280e-06   3.2756983336889328e-05   7.6291899022147446e-06   2.8902726843320159e-05   2.4167025476210745e-05   3.8556821305496792e-05   2.4584775008857200e-05   3.0920398963088500e-05   2.0505133854496783e-05   2.0494781199555223e-05   1.5811425333875794e-05   1.4459096858683910e-05   1.3227627668928643e-05   1.6294331781818094e-05   1.4267194494278575e-05   2.4926693861772588e-05   1.8378902913055845e-05   3.5340334870724443e-05   2.4234055344068269e-05   4.1950576528553931e-05   3.8742922656974202e-05   4.4100338658603684e-05   2.9061045323660822e-05   3.1880813309531565e-05   1.3610272595556362e-05   1.4666693334604283e-05   2.5248608612538655e-06   2.5607394148897132e-06   2.2359411974853028e-06   2.6509063158681169e-06   1.2913943952289818e-05   1.4884218456859134e-05   2.8345697718133632e-05   3.2094608765527579e-05   3.9988282164487167e-05   4.4200941626057865e-05   </DataArray> 
</CellData> 
</Piece>
</UnstructuredGrid>
</VTKFile>