<?xml version="1.0"?>
<VTKFile type="UnstructuredGrid"  version="0.1"  >
<UnstructuredGrid>
<Piece  NumberOfPoints="81" NumberOfCells="128">
<Points>
<DataArray  type="Float64"  NumberOfComponents="3"  format="ascii">0 0 0  0.125 0 0  0.25 0 0  0.375 0 0  0.5 0 0  0.625 0 0  0.75 0 0  0.875 0 0  1 0 0  0 0.125 0  0.125 0.125 0  0.25 0.125 0  0.375 0.125 0  0.5 0.125 0  0.625 0.125 0  0.75 0.125 0  0.875 0.125 0  1 0.125 0  0 0.25 0  0.125 0.25 0  0.25 0.25 0  0.375 0.25 0  0.5 0.25 0  0.625 0.25 0  0.75 0.25 0  0.875 0.25 0  1 0.25 0  0 0.375 0  0.125 0.375 0  0.25 0.375 0  0.375 0.375 0  0.5 0.375 0  0.625 0.375 0  0.75 0.375 0  0.875 0.375 0  1 0.375 0  0 0.5 0  0.125 0.5 0  0.25 0.5 0  0.375 0.5 0  0.5 0.5 0  0.625 0.5 0  0.75 0.5 0  0.875 0.5 0  1 0.5 0  0 0.625 0  0.125 0.625 0  0.25 0.625 0  0.375 0.625 0  0.5 0.625 0  0.625 0.625 0  0.75 0.625 0  0.875 0.625 0  1 0.625 0  0 0.75 0  0.125 0.75 0  0.25 0.75 0  0.375 0.75 0  0.5 0.75 0  0.625 0.75 0  0.75 0.75 0  0.875 0.75 0  1 0.75 0  0 0.875 0  0.125 0.875 0  0.25 0.875 0  0.375 0.875 0  0.5 0.875 0  0.625 0.875 0  0.75 0.875 0  0.875 0.875 0  1 0.875 0  0 1 0  0.125 1 0  0.25 1 0  0.375 1 0  0.5 1 0  0.625 1 0  0.75 1 0  0.875 1 0  1 1 0  </DataArray>
</Points>
<Cells>
<DataArray  type="UInt32"  Name="connectivity"  format="ascii">0 1 10  0 9 10  1 2 11  1 10 11  2 3 12  2 11 12  3 4 13  3 12 13  4 5 14  4 13 14  5 6 15  5 14 15  6 7 16  6 15 16  7 8 17  7 16 17  9 10 19  9 18 19  10 11 20  10 19 20  11 12 21  11 20 21  12 13 22  12 21 22  13 14 23  13 22 23  14 15 24  14 23 24  15 16 25  15 24 25  16 17 26  16 25 26  18 19 28  18 27 28  19 20 29  19 28 29  20 21 30  20 29 30  21 22 31  21 30 31  22 23 32  22 31 32  23 24 33  23 32 33  24 25 34  24 33 34  25 26 35  25 34 35  27 28 37  27 36 37  28 29 38  28 37 38  29 30 39  29 38 39  30 31 40  30 39 40  31 32 41  31 40 41  32 33 42  32 41 42  33 34 43  33 42 43  34 35 44  34 43 44  36 37 46  36 45 46  37 38 47  37 46 47  38 39 48  38 47 48  39 40 49  39 48 49  40 41 50  40 49 50  41 42 51  41 50 51  42 43 52  42 51 52  43 44 53  43 52 53  45 46 55  45 54 55  46 47 56  46 55 56  47 48 57  47 56 57  48 49 58  48 57 58  49 50 59  49 58 59  50 51 60  50 59 60  51 52 61  51 60 61  52 53 62  52 61 62  54 55 64  54 63 64  55 56 65  55 64 65  56 57 66  56 65 66  57 58 67  57 66 67  58 59 68  58 67 68  59 60 69  59 68 69  60 61 70  60 69 70  61 62 71  61 70 71  63 64 73  63 72 73  64 65 74  64 73 74  65 66 75  65 74 75  66 67 76  66 75 76  67 68 77  67 76 77  68 69 78  68 77 78  69 70 79  69 78 79  70 71 80  70 79 80  </DataArray>
<DataArray  type="UInt32"  Name="offsets"  format="ascii">3 6 9 12 15 18 21 24 27 30 33 36 39 42 45 48 51 54 57 60 63 66 69 72 75 78 81 84 87 90 93 96 99 102 105 108 111 114 117 120 123 126 129 132 135 138 141 144 147 150 153 156 159 162 165 168 171 174 177 180 183 186 189 192 195 198 201 204 207 210 213 216 219 222 225 228 231 234 237 240 243 246 249 252 255 258 261 264 267 270 273 276 279 282 285 288 291 294 297 300 303 306 309 312 315 318 321 324 327 330 333 336 339 342 345 348 351 354 357 360 363 366 369 372 375 378 381 384 </DataArray>
<DataArray  type="UInt8"  Name="types"  format="ascii">5 5 5 5 5 5 5 5 5 5 5 5 5 5 5 5 5 5 5 5 5 5 5 5 5 5 5 5 5 5 5 5 5 5 5 5 5 5 5 5 5 5 5 5 5 5 5 5 5 5 5 5 5 5 5 5 5 5 5 5 5 5 5 5 5 5 5 5 5 5 5 5 5 5 5 5 5 5 5 5 5 5 5 5 5 5 5 5 5 5 5 5 5 5 5 5 5 5 5 5 5 5 5 5 5 5 5 5 5 5 5 5 5 5 5 5 5 5 5 5 5 5 5 5 5 5 5 5 </DataArray>
</Cells>
<CellData  Scalars="f_47795"> 
<DataArray  type="Float64"  Name="f_47795"  format="ascii">4.4100397734972197e-05   3.8809469260282908e-05   3.2151896546071044e-05   2.7854987235156215e-05   1.5119038456426901e-05   1.2830052008875916e-05   2.9779502518725043e-06   2.4959495085344495e-06   2.8388408994925840e-06   2.8124264373639260e-06   1.4779853735337344e-05   1.3567305273077159e-05   3.1792061615620148e-05   2.8294815860356050e-05   4.3941128246217728e-05   3.8263670485796979e-05   4.0767789333698431e-05   2.3332037248856390e-05   3.4483924640036746e-05   1.8414755684879750e-05   2.4009345674265338e-05   1.3963457924751370e-05   1.5396315029381399e-05   1.2582743273215913e-05   1.3585674887633696e-05   1.4898477480242816e-05   1.9601350746367142e-05   1.9498095364821338e-05   2.9735343402545534e-05   2.3458157103083213e-05   3.8051897032070015e-05   2.4326450202018494e-05   2.8003790645592545e-05   7.1230316296831699e-06   3.2556029175971661e-05   9.5366333989725096e-06   3.4875770553354197e-05   1.8138684705614646e-05   3.3473816942494592e-05   2.7913839680387669e-05   2.8992417595203588e-05   3.2965385184467757e-05   2.4001616086792265e-05   3.0285416196302705e-05   2.1197017533103513e-05   2.1285113839809700e-05   2.2205489396808145e-05   1.1146914617602217e-05   1.3748689243839270e-05   8.9994725110926642e-09   2.7572607106544426e-05   6.6258655515098143e-06   4.0917505400592445e-05   2.2709493265470704e-05   4.5845900206782780e-05   3.8881786084544215e-05   3.9329714283582059e-05   4.5636061598296100e-05   2.5150162455868719e-05   3.9008312723120372e-05   1.1477877793065200e-05   2.2878754740302167e-05   6.2737482027914480e-06   6.7161978361791876e-06   6.7194212611046699e-06   6.2279326796532392e-06   2.2884755944164423e-05   1.1458076947328779e-05   3.9018648825359865e-05   2.5148355894480882e-05   4.5648615215742209e-05   3.9339329734913280e-05   3.8893374988309774e-05   4.5857714158144112e-05   2.2717757205131122e-05   4.0921266138733633e-05   6.6288944085130405e-06   2.7558692194630349e-05   7.2948468026340219e-09   1.3704714579455394e-05   1.1106172956590192e-05   2.2130029276397035e-05   2.1280010018714184e-05   2.1169453019805205e-05   3.0304748067103427e-05   2.4006921788790968e-05   3.2996241533123167e-05   2.9018218976743282e-05   2.7941472808003255e-05   3.3504101112004352e-05   1.8149890247066321e-05   3.4891628841200874e-05   9.5215659720255366e-06   3.2540816659241151e-05   7.0759050317605979e-06   2.7940625726954626e-05   2.4258518751671011e-05   3.7984921689413580e-05   2.3447122955408815e-05   2.9715737186798438e-05   1.9521083591870403e-05   1.9614842914475237e-05   1.4936151292704361e-05   1.3618837924901220e-05   1.2615366081249140e-05   1.5433716737407153e-05   1.3972787243095617e-05   2.4032381740954869e-05   1.8388287554896687e-05   3.4477075700811493e-05   2.3262002649588579e-05   4.0719189826994077e-05   3.8201723302053623e-05   4.3941128246217789e-05   2.8280965741976433e-05   3.1797089774533511e-05   1.3578498871143096e-05   1.4793138502768616e-05   2.8328339706800904e-06   2.8581465572006181e-06   2.5124000659457843e-06   2.9990930968293809e-06   1.2829953460009362e-05   1.5136976296249418e-05   2.7829811071729128e-05   3.2162919312599524e-05   3.8753201384359431e-05   4.4104024059572582e-05   </DataArray> 
</CellData> 
</Piece>
</UnstructuredGrid>
</VTKFile>