<?xml version="1.0"?>
<VTKFile type="UnstructuredGrid"  version="0.1"  >
<UnstructuredGrid>
<Piece  NumberOfPoints="25" NumberOfCells="32">
<Points>
<DataArray  type="Float64"  NumberOfComponents="3"  format="ascii">0 0 0  0.25 0 0  0.5 0 0  0.75 0 0  1 0 0  0 0.25 0  0.25 0.25 0  0.5 0.25 0  0.75 0.25 0  1 0.25 0  0 0.5 0  0.25 0.5 0  0.5 0.5 0  0.75 0.5 0  1 0.5 0  0 0.75 0  0.25 0.75 0  0.5 0.75 0  0.75 0.75 0  1 0.75 0  0 1 0  0.25 1 0  0.5 1 0  0.75 1 0  1 1 0  </DataArray>
</Points>
<Cells>
<DataArray  type="UInt32"  Name="connectivity"  format="ascii">0 1 6  0 5 6  1 2 7  1 6 7  2 3 8  2 7 8  3 4 9  3 8 9  5 6 11  5 10 11  6 7 12  6 11 12  7 8 13  7 12 13  8 9 14  8 13 14  10 11 16  10 15 16  11 12 17  11 16 17  12 13 18  12 17 18  13 14 19  13 18 19  15 16 21  15 20 21  16 17 22  16 21 22  17 18 23  17 22 23  18 19 24  18 23 24  </DataArray>
<DataArray  type="UInt32"  Name="offsets"  format="ascii">3 6 9 12 15 18 21 24 27 30 33 36 39 42 45 48 51 54 57 60 63 66 69 72 75 78 81 84 87 90 93 96 </DataArray>
<DataArray  type="UInt8"  Name="types"  format="ascii">5 5 5 5 5 5 5 5 5 5 5 5 5 5 5 5 5 5 5 5 5 5 5 5 5 5 5 5 5 5 5 5 </DataArray>
</Cells>
<CellData  Scalars="f_87366"> 
<DataArray  type="Float64"  Name="f_87366"  format="ascii">1.0399339628166776e-05   4.3032540158464118e-06   3.4051267492846181e-06   1.8451009244746395e-06   2.4220992221948091e-06   2.4811868233866691e-06   9.4122701069316340e-06   5.5139141945853212e-06   8.9021566186240727e-06   4.9107315218212799e-09   9.8825166020140588e-06   4.6033550902627727e-06   5.1184353592644564e-06   9.0292028134260244e-06   4.7067052173022476e-06   4.4317537343999746e-06   4.4263621359451830e-06   4.7210657890199484e-06   9.0171779602618275e-06   5.1147881413420512e-06   4.5978763888739736e-06   9.8732404411029325e-06   4.2686941493244260e-09   8.9105377468908169e-06   5.5223431194160879e-06   9.4122701069316543e-06   2.4709078490127490e-06   2.4161675753078953e-06   1.8408366861017491e-06   3.3924613570057959e-06   4.3173789726683487e-06   1.0392591824707161e-05   </DataArray> 
</CellData> 
</Piece>
</UnstructuredGrid>
</VTKFile>