<?xml version="1.0"?>
<VTKFile type="UnstructuredGrid"  version="0.1"  >
<UnstructuredGrid>
<Piece  NumberOfPoints="81" NumberOfCells="128">
<Points>
<DataArray  type="Float64"  NumberOfComponents="3"  format="ascii">0 0 0  0.125 0 0  0.25 0 0  0.375 0 0  0.5 0 0  0.625 0 0  0.75 0 0  0.875 0 0  1 0 0  0 0.125 0  0.125 0.125 0  0.25 0.125 0  0.375 0.125 0  0.5 0.125 0  0.625 0.125 0  0.75 0.125 0  0.875 0.125 0  1 0.125 0  0 0.25 0  0.125 0.25 0  0.25 0.25 0  0.375 0.25 0  0.5 0.25 0  0.625 0.25 0  0.75 0.25 0  0.875 0.25 0  1 0.25 0  0 0.375 0  0.125 0.375 0  0.25 0.375 0  0.375 0.375 0  0.5 0.375 0  0.625 0.375 0  0.75 0.375 0  0.875 0.375 0  1 0.375 0  0 0.5 0  0.125 0.5 0  0.25 0.5 0  0.375 0.5 0  0.5 0.5 0  0.625 0.5 0  0.75 0.5 0  0.875 0.5 0  1 0.5 0  0 0.625 0  0.125 0.625 0  0.25 0.625 0  0.375 0.625 0  0.5 0.625 0  0.625 0.625 0  0.75 0.625 0  0.875 0.625 0  1 0.625 0  0 0.75 0  0.125 0.75 0  0.25 0.75 0  0.375 0.75 0  0.5 0.75 0  0.625 0.75 0  0.75 0.75 0  0.875 0.75 0  1 0.75 0  0 0.875 0  0.125 0.875 0  0.25 0.875 0  0.375 0.875 0  0.5 0.875 0  0.625 0.875 0  0.75 0.875 0  0.875 0.875 0  1 0.875 0  0 1 0  0.125 1 0  0.25 1 0  0.375 1 0  0.5 1 0  0.625 1 0  0.75 1 0  0.875 1 0  1 1 0  </DataArray>
</Points>
<Cells>
<DataArray  type="UInt32"  Name="connectivity"  format="ascii">0 1 10  0 9 10  1 2 11  1 10 11  2 3 12  2 11 12  3 4 13  3 12 13  4 5 14  4 13 14  5 6 15  5 14 15  6 7 16  6 15 16  7 8 17  7 16 17  9 10 19  9 18 19  10 11 20  10 19 20  11 12 21  11 20 21  12 13 22  12 21 22  13 14 23  13 22 23  14 15 24  14 23 24  15 16 25  15 24 25  16 17 26  16 25 26  18 19 28  18 27 28  19 20 29  19 28 29  20 21 30  20 29 30  21 22 31  21 30 31  22 23 32  22 31 32  23 24 33  23 32 33  24 25 34  24 33 34  25 26 35  25 34 35  27 28 37  27 36 37  28 29 38  28 37 38  29 30 39  29 38 39  30 31 40  30 39 40  31 32 41  31 40 41  32 33 42  32 41 42  33 34 43  33 42 43  34 35 44  34 43 44  36 37 46  36 45 46  37 38 47  37 46 47  38 39 48  38 47 48  39 40 49  39 48 49  40 41 50  40 49 50  41 42 51  41 50 51  42 43 52  42 51 52  43 44 53  43 52 53  45 46 55  45 54 55  46 47 56  46 55 56  47 48 57  47 56 57  48 49 58  48 57 58  49 50 59  49 58 59  50 51 60  50 59 60  51 52 61  51 60 61  52 53 62  52 61 62  54 55 64  54 63 64  55 56 65  55 64 65  56 57 66  56 65 66  57 58 67  57 66 67  58 59 68  58 67 68  59 60 69  59 68 69  60 61 70  60 69 70  61 62 71  61 70 71  63 64 73  63 72 73  64 65 74  64 73 74  65 66 75  65 74 75  66 67 76  66 75 76  67 68 77  67 76 77  68 69 78  68 77 78  69 70 79  69 78 79  70 71 80  70 79 80  </DataArray>
<DataArray  type="UInt32"  Name="offsets"  format="ascii">3 6 9 12 15 18 21 24 27 30 33 36 39 42 45 48 51 54 57 60 63 66 69 72 75 78 81 84 87 90 93 96 99 102 105 108 111 114 117 120 123 126 129 132 135 138 141 144 147 150 153 156 159 162 165 168 171 174 177 180 183 186 189 192 195 198 201 204 207 210 213 216 219 222 225 228 231 234 237 240 243 246 249 252 255 258 261 264 267 270 273 276 279 282 285 288 291 294 297 300 303 306 309 312 315 318 321 324 327 330 333 336 339 342 345 348 351 354 357 360 363 366 369 372 375 378 381 384 </DataArray>
<DataArray  type="UInt8"  Name="types"  format="ascii">5 5 5 5 5 5 5 5 5 5 5 5 5 5 5 5 5 5 5 5 5 5 5 5 5 5 5 5 5 5 5 5 5 5 5 5 5 5 5 5 5 5 5 5 5 5 5 5 5 5 5 5 5 5 5 5 5 5 5 5 5 5 5 5 5 5 5 5 5 5 5 5 5 5 5 5 5 5 5 5 5 5 5 5 5 5 5 5 5 5 5 5 5 5 5 5 5 5 5 5 5 5 5 5 5 5 5 5 5 5 5 5 5 5 5 5 5 5 5 5 5 5 5 5 5 5 5 5 </DataArray>
</Cells>
<CellData  Scalars="f_53355"> 
<DataArray  type="Float64"  Name="f_53355"  format="ascii">1.1778542157106508e-05   1.0934888721100601e-05   4.7909959415386875e-06   6.5240663774153700e-06   7.6989102298777464e-07   4.6731472862233634e-06   7.0313869643381413e-07   7.9021418481382530e-06   2.7181529104061685e-06   1.1589918672517175e-05   4.1013256673176865e-06   1.1665898664175055e-05   3.3065567223179327e-06   7.4255581262634446e-06   1.1728019022745684e-06   2.0020427327563882e-06   2.9595041542609105e-06   2.1518004532605377e-06   1.4774658720932504e-06   2.0210695877567832e-06   4.8416488967741007e-06   4.8037457650116071e-06   9.1681329851447902e-06   7.1745463045459135e-06   1.0592738944976956e-05   6.7328373401665467e-06   8.0528208604144956e-06   3.7216191394283100e-06   3.9450825192677161e-06   6.7395183767927830e-07   5.5003382972125250e-07   5.2665121646526020e-07   1.9650927903717123e-06   5.4537261062117242e-07   4.3460537559812511e-06   4.1865305973256778e-06   6.6373315734600194e-06   5.8769150580221539e-06   6.8562677004961750e-06   4.7852176652830373e-06   5.0794068519521298e-06   2.0841737044013164e-06   3.2445851608140450e-06   2.3121773861472164e-07   3.5540609169546393e-06   1.1870179424825743e-06   1.8113087418134371e-06   4.8030275313735073e-06   6.3482301286423056e-06   2.6093880097452484e-06   7.0299581926460113e-06   7.1379266961685673e-06   5.3756757629306707e-06   5.2685737337759382e-06   2.8043212224127737e-06   2.0483723356272049e-06   1.4914801913736547e-06   2.2521158974086132e-07   2.8318215787820340e-06   1.3330599500815955e-06   6.1753680909098246e-06   4.7756888001645318e-06   3.3674114668615642e-06   8.0741516456435379e-06   8.9227712515380780e-06   3.9857417307497362e-06   5.9734142068973598e-06   6.9470951058513955e-06   2.1504840822876817e-06   3.3874309921942113e-06   2.2887437151811945e-07   1.3374688732412908e-06   1.3791448129706229e-06   2.0127589722091615e-06   4.5482628683968389e-06   4.4819520436404969e-06   7.0407442214524719e-06   6.6279134653356399e-06   2.6889514314586291e-06   6.6574338595758834e-06   6.3673211340030144e-06   2.7099016186595547e-06   2.1879901358850643e-06   4.1736839283060259e-06   1.4704614673306282e-07   2.9949344016355145e-06   1.1703561105543635e-06   4.1724413778156611e-06   3.8090685522545028e-06   5.9761060952528766e-06   5.5503448009136503e-06   6.3647790512942829e-06   4.6362951429659847e-06   4.7095068087539962e-06   7.2457769800128591e-07   2.4177423206664357e-06   1.3287732488177801e-06   7.1863063952420620e-07   2.6102093130267767e-07   3.4169628666995148e-06   2.4079274413697762e-06   6.8944470717183896e-06   5.4186879805063863e-06   9.6521174000433375e-06   6.5729604260418094e-06   9.0132902569956152e-06   4.8771441652515640e-06   5.2329505033401229e-06   1.9749017557604425e-06   1.5135543131469416e-06   1.2755122450617715e-06   1.8371233002772404e-06   9.4377028543730952e-07   5.5287956570632820e-07   5.2450058750178419e-06   2.0050897853170726e-06   9.6515778693680656e-06   2.8707117207063421e-06   1.0718245040517726e-05   2.1678354664459475e-06   8.0339404084830793e-06   6.7783221016537508e-07   4.6084727486387431e-06   4.3545859030589687e-07   4.9072663545097310e-06   3.2795340343444452e-06   8.3396596930108176e-06   9.0167709761991472e-06   </DataArray> 
</CellData> 
</Piece>
</UnstructuredGrid>
</VTKFile>