<?xml version="1.0"?>
<VTKFile type="UnstructuredGrid"  version="0.1"  >
<UnstructuredGrid>
<Piece  NumberOfPoints="81" NumberOfCells="128">
<Points>
<DataArray  type="Float64"  NumberOfComponents="3"  format="ascii">0 0 0  0.125 0 0  0.25 0 0  0.375 0 0  0.5 0 0  0.625 0 0  0.75 0 0  0.875 0 0  1 0 0  0 0.125 0  0.125 0.125 0  0.25 0.125 0  0.375 0.125 0  0.5 0.125 0  0.625 0.125 0  0.75 0.125 0  0.875 0.125 0  1 0.125 0  0 0.25 0  0.125 0.25 0  0.25 0.25 0  0.375 0.25 0  0.5 0.25 0  0.625 0.25 0  0.75 0.25 0  0.875 0.25 0  1 0.25 0  0 0.375 0  0.125 0.375 0  0.25 0.375 0  0.375 0.375 0  0.5 0.375 0  0.625 0.375 0  0.75 0.375 0  0.875 0.375 0  1 0.375 0  0 0.5 0  0.125 0.5 0  0.25 0.5 0  0.375 0.5 0  0.5 0.5 0  0.625 0.5 0  0.75 0.5 0  0.875 0.5 0  1 0.5 0  0 0.625 0  0.125 0.625 0  0.25 0.625 0  0.375 0.625 0  0.5 0.625 0  0.625 0.625 0  0.75 0.625 0  0.875 0.625 0  1 0.625 0  0 0.75 0  0.125 0.75 0  0.25 0.75 0  0.375 0.75 0  0.5 0.75 0  0.625 0.75 0  0.75 0.75 0  0.875 0.75 0  1 0.75 0  0 0.875 0  0.125 0.875 0  0.25 0.875 0  0.375 0.875 0  0.5 0.875 0  0.625 0.875 0  0.75 0.875 0  0.875 0.875 0  1 0.875 0  0 1 0  0.125 1 0  0.25 1 0  0.375 1 0  0.5 1 0  0.625 1 0  0.75 1 0  0.875 1 0  1 1 0  </DataArray>
</Points>
<Cells>
<DataArray  type="UInt32"  Name="connectivity"  format="ascii">0 1 10  0 9 10  1 2 11  1 10 11  2 3 12  2 11 12  3 4 13  3 12 13  4 5 14  4 13 14  5 6 15  5 14 15  6 7 16  6 15 16  7 8 17  7 16 17  9 10 19  9 18 19  10 11 20  10 19 20  11 12 21  11 20 21  12 13 22  12 21 22  13 14 23  13 22 23  14 15 24  14 23 24  15 16 25  15 24 25  16 17 26  16 25 26  18 19 28  18 27 28  19 20 29  19 28 29  20 21 30  20 29 30  21 22 31  21 30 31  22 23 32  22 31 32  23 24 33  23 32 33  24 25 34  24 33 34  25 26 35  25 34 35  27 28 37  27 36 37  28 29 38  28 37 38  29 30 39  29 38 39  30 31 40  30 39 40  31 32 41  31 40 41  32 33 42  32 41 42  33 34 43  33 42 43  34 35 44  34 43 44  36 37 46  36 45 46  37 38 47  37 46 47  38 39 48  38 47 48  39 40 49  39 48 49  40 41 50  40 49 50  41 42 51  41 50 51  42 43 52  42 51 52  43 44 53  43 52 53  45 46 55  45 54 55  46 47 56  46 55 56  47 48 57  47 56 57  48 49 58  48 57 58  49 50 59  49 58 59  50 51 60  50 59 60  51 52 61  51 60 61  52 53 62  52 61 62  54 55 64  54 63 64  55 56 65  55 64 65  56 57 66  56 65 66  57 58 67  57 66 67  58 59 68  58 67 68  59 60 69  59 68 69  60 61 70  60 69 70  61 62 71  61 70 71  63 64 73  63 72 73  64 65 74  64 73 74  65 66 75  65 74 75  66 67 76  66 75 76  67 68 77  67 76 77  68 69 78  68 77 78  69 70 79  69 78 79  70 71 80  70 79 80  </DataArray>
<DataArray  type="UInt32"  Name="offsets"  format="ascii">3 6 9 12 15 18 21 24 27 30 33 36 39 42 45 48 51 54 57 60 63 66 69 72 75 78 81 84 87 90 93 96 99 102 105 108 111 114 117 120 123 126 129 132 135 138 141 144 147 150 153 156 159 162 165 168 171 174 177 180 183 186 189 192 195 198 201 204 207 210 213 216 219 222 225 228 231 234 237 240 243 246 249 252 255 258 261 264 267 270 273 276 279 282 285 288 291 294 297 300 303 306 309 312 315 318 321 324 327 330 333 336 339 342 345 348 351 354 357 360 363 366 369 372 375 378 381 384 </DataArray>
<DataArray  type="UInt8"  Name="types"  format="ascii">5 5 5 5 5 5 5 5 5 5 5 5 5 5 5 5 5 5 5 5 5 5 5 5 5 5 5 5 5 5 5 5 5 5 5 5 5 5 5 5 5 5 5 5 5 5 5 5 5 5 5 5 5 5 5 5 5 5 5 5 5 5 5 5 5 5 5 5 5 5 5 5 5 5 5 5 5 5 5 5 5 5 5 5 5 5 5 5 5 5 5 5 5 5 5 5 5 5 5 5 5 5 5 5 5 5 5 5 5 5 5 5 5 5 5 5 5 5 5 5 5 5 5 5 5 5 5 5 </DataArray>
</Cells>
<CellData  Scalars="f_37605"> 
<DataArray  type="Float64"  Name="f_37605"  format="ascii">5.2791391146827171e-05   5.4870239878924926e-05   1.0992177205181349e-04   1.6259623932631602e-04   1.5003657182104081e-04   2.6925871121469248e-04   1.5034546036099490e-04   3.1642840108636985e-04   1.1094245028142107e-04   2.7711126920119239e-04   5.4837874210782741e-05   1.7462068943992340e-04   1.5144590672716118e-05   6.9215807423582035e-05   1.3550038036066129e-05   2.5181391426101199e-05   2.7907052844291543e-04   2.3116990992326061e-04   3.5803665965330512e-04   3.5658737285236899e-04   3.5913909919085558e-04   3.5098058906790847e-04   2.8549232619922912e-04   2.7167595047303202e-04   1.8123164124726656e-04   1.6655917302434180e-04   1.0789815019499501e-04   9.7556837839878895e-05   1.1144419709975226e-04   1.0624664268371132e-04   1.4276443832861915e-04   1.9385508392018942e-04   5.5929889614880616e-04   4.4624536655148009e-04   5.2594221641277361e-04   5.2856332039703672e-04   3.6541806748664491e-04   3.6397740999899632e-04   1.7604287864877153e-04   1.7301630415097926e-04   6.9736959920211567e-05   6.7098624299699326e-05   1.0975639872095671e-04   1.0813351389033282e-04   2.7764796121974779e-04   2.7340075979651377e-04   3.5810100938304354e-04   4.7244458334325351e-04   7.3135450263014912e-04   5.7252318114462829e-04   5.7056992882218056e-04   5.7656512299589073e-04   2.9761742194810587e-04   2.9845228853014308e-04   7.3236831279163385e-05   7.2883116372463491e-05   2.9043574280671963e-05   2.8688253419061337e-05   1.9197298786163703e-04   1.9097355267301300e-04   4.7145406199071524e-04   4.6538090562228419e-04   5.3593015215306380e-04   6.9453255458522332e-04   6.9626367409923110e-04   5.3683463282493083e-04   4.6668986596620343e-04   4.7334381703074421e-04   1.9173281611771476e-04   1.9281881538077371e-04   2.8709359994582900e-05   2.9063137801492909e-05   7.2283395138994250e-05   7.2636345532645303e-05   2.9757179059130136e-04   2.9682965288469799e-04   5.7550194121214334e-04   5.7005348094022650e-04   5.7296811987479269e-04   7.3125337799050062e-04   4.7504822278251693e-04   3.5987172806208783e-04   2.7486378238037210e-04   2.7955670802181558e-04   1.0848493739015623e-04   1.1009958128681940e-04   6.6537445989384722e-05   6.9080379737277101e-05   1.7214187984722497e-04   1.7507211164203060e-04   3.6346119881127043e-04   3.6490177426435472e-04   5.2864935689069285e-04   5.2636646063588101e-04   4.4785088063226282e-04   5.6073951675972777e-04   1.9616429262450140e-04   1.4450124239639081e-04   1.0709378685534730e-04   1.1225191913382862e-04   9.7259018578668428e-05   1.0710452344576256e-04   1.6563247830915040e-04   1.7968604396643241e-04   2.7089116794344625e-04   2.8413949898949760e-04   3.5097200835280219e-04   3.5878827729354064e-04   3.5754264276999015e-04   3.5899528490043563e-04   2.3313727831553055e-04   2.8118835776225133e-04   2.5959719575119237e-05   1.4377348458744327e-05   6.8649421763652323e-05   1.5161537527480781e-05   1.7336088477096380e-04   5.4447479667720890e-05   2.7581264511034709e-04   1.1050515535706739e-04   3.1571607559530010e-04   1.5020460445986744e-04   2.6945331856291325e-04   1.5041065411645785e-04   1.6360723628073735e-04   1.1078687428902465e-04   5.6029969423091222e-05   5.3940801292695291e-05   </DataArray> 
</CellData> 
</Piece>
</UnstructuredGrid>
</VTKFile>