<?xml version="1.0"?>
<VTKFile type="UnstructuredGrid"  version="0.1"  >
<UnstructuredGrid>
<Piece  NumberOfPoints="81" NumberOfCells="128">
<Points>
<DataArray  type="Float64"  NumberOfComponents="3"  format="ascii">0 0 0  0.125 0 0  0.25 0 0  0.375 0 0  0.5 0 0  0.625 0 0  0.75 0 0  0.875 0 0  1 0 0  0 0.125 0  0.125 0.125 0  0.25 0.125 0  0.375 0.125 0  0.5 0.125 0  0.625 0.125 0  0.75 0.125 0  0.875 0.125 0  1 0.125 0  0 0.25 0  0.125 0.25 0  0.25 0.25 0  0.375 0.25 0  0.5 0.25 0  0.625 0.25 0  0.75 0.25 0  0.875 0.25 0  1 0.25 0  0 0.375 0  0.125 0.375 0  0.25 0.375 0  0.375 0.375 0  0.5 0.375 0  0.625 0.375 0  0.75 0.375 0  0.875 0.375 0  1 0.375 0  0 0.5 0  0.125 0.5 0  0.25 0.5 0  0.375 0.5 0  0.5 0.5 0  0.625 0.5 0  0.75 0.5 0  0.875 0.5 0  1 0.5 0  0 0.625 0  0.125 0.625 0  0.25 0.625 0  0.375 0.625 0  0.5 0.625 0  0.625 0.625 0  0.75 0.625 0  0.875 0.625 0  1 0.625 0  0 0.75 0  0.125 0.75 0  0.25 0.75 0  0.375 0.75 0  0.5 0.75 0  0.625 0.75 0  0.75 0.75 0  0.875 0.75 0  1 0.75 0  0 0.875 0  0.125 0.875 0  0.25 0.875 0  0.375 0.875 0  0.5 0.875 0  0.625 0.875 0  0.75 0.875 0  0.875 0.875 0  1 0.875 0  0 1 0  0.125 1 0  0.25 1 0  0.375 1 0  0.5 1 0  0.625 1 0  0.75 1 0  0.875 1 0  1 1 0  </DataArray>
</Points>
<Cells>
<DataArray  type="UInt32"  Name="connectivity"  format="ascii">0 1 10  0 9 10  1 2 11  1 10 11  2 3 12  2 11 12  3 4 13  3 12 13  4 5 14  4 13 14  5 6 15  5 14 15  6 7 16  6 15 16  7 8 17  7 16 17  9 10 19  9 18 19  10 11 20  10 19 20  11 12 21  11 20 21  12 13 22  12 21 22  13 14 23  13 22 23  14 15 24  14 23 24  15 16 25  15 24 25  16 17 26  16 25 26  18 19 28  18 27 28  19 20 29  19 28 29  20 21 30  20 29 30  21 22 31  21 30 31  22 23 32  22 31 32  23 24 33  23 32 33  24 25 34  24 33 34  25 26 35  25 34 35  27 28 37  27 36 37  28 29 38  28 37 38  29 30 39  29 38 39  30 31 40  30 39 40  31 32 41  31 40 41  32 33 42  32 41 42  33 34 43  33 42 43  34 35 44  34 43 44  36 37 46  36 45 46  37 38 47  37 46 47  38 39 48  38 47 48  39 40 49  39 48 49  40 41 50  40 49 50  41 42 51  41 50 51  42 43 52  42 51 52  43 44 53  43 52 53  45 46 55  45 54 55  46 47 56  46 55 56  47 48 57  47 56 57  48 49 58  48 57 58  49 50 59  49 58 59  50 51 60  50 59 60  51 52 61  51 60 61  52 53 62  52 61 62  54 55 64  54 63 64  55 56 65  55 64 65  56 57 66  56 65 66  57 58 67  57 66 67  58 59 68  58 67 68  59 60 69  59 68 69  60 61 70  60 69 70  61 62 71  61 70 71  63 64 73  63 72 73  64 65 74  64 73 74  65 66 75  65 74 75  66 67 76  66 75 76  67 68 77  67 76 77  68 69 78  68 77 78  69 70 79  69 78 79  70 71 80  70 79 80  </DataArray>
<DataArray  type="UInt32"  Name="offsets"  format="ascii">3 6 9 12 15 18 21 24 27 30 33 36 39 42 45 48 51 54 57 60 63 66 69 72 75 78 81 84 87 90 93 96 99 102 105 108 111 114 117 120 123 126 129 132 135 138 141 144 147 150 153 156 159 162 165 168 171 174 177 180 183 186 189 192 195 198 201 204 207 210 213 216 219 222 225 228 231 234 237 240 243 246 249 252 255 258 261 264 267 270 273 276 279 282 285 288 291 294 297 300 303 306 309 312 315 318 321 324 327 330 333 336 339 342 345 348 351 354 357 360 363 366 369 372 375 378 381 384 </DataArray>
<DataArray  type="UInt8"  Name="types"  format="ascii">5 5 5 5 5 5 5 5 5 5 5 5 5 5 5 5 5 5 5 5 5 5 5 5 5 5 5 5 5 5 5 5 5 5 5 5 5 5 5 5 5 5 5 5 5 5 5 5 5 5 5 5 5 5 5 5 5 5 5 5 5 5 5 5 5 5 5 5 5 5 5 5 5 5 5 5 5 5 5 5 5 5 5 5 5 5 5 5 5 5 5 5 5 5 5 5 5 5 5 5 5 5 5 5 5 5 5 5 5 5 5 5 5 5 5 5 5 5 5 5 5 5 5 5 5 5 5 5 </DataArray>
</Cells>
<CellData  Scalars="f_37611"> 
<DataArray  type="Float64"  Name="f_37611"  format="ascii">7.0605368916771345e-04   6.2099623274574516e-04   5.1487205722918275e-04   4.4534048856619414e-04   2.4218664041105370e-04   2.0567020384331042e-04   4.7732912995641664e-05   4.0196493499459599e-05   4.5379689418673077e-05   4.4936231458653389e-05   2.3645867731813272e-04   2.1667706489347856e-04   5.0897559583491542e-04   4.5381143398472997e-04   7.0348263391196964e-04   6.1264530379260141e-04   6.5251778593220194e-04   3.7269808841907098e-04   5.5283742164936476e-04   2.9283407562439575e-04   3.8682963675336303e-04   2.2466743618290892e-04   2.4917122654774483e-04   2.0382002004769935e-04   2.1943447409453505e-04   2.4089425240711676e-04   3.1449004799026081e-04   3.1340926901969704e-04   4.7757267505789977e-04   3.7721628473697438e-04   6.0925946367225122e-04   3.8831324893681826e-04   4.4699879552034360e-04   1.1418214025904315e-04   5.1783429283356914e-04   1.5118997589505965e-04   5.5532163680790632e-04   2.8933204972210935e-04   5.3215786682149794e-04   4.4423513308392633e-04   4.6024566042027258e-04   5.2382011438814580e-04   3.8095611672886686e-04   4.8083391701763290e-04   3.3918728965384335e-04   3.3922666670229643e-04   3.5382029401626644e-04   1.7765759856296282e-04   2.1956827916660323e-04   1.7625657597181301e-07   4.3830499121349457e-04   1.0538669072665424e-04   6.5120380110721609e-04   3.6143224924957364e-04   7.2909135565821671e-04   6.1843145259603521e-04   6.2511772985473840e-04   7.2562246944195339e-04   3.9971081158579028e-04   6.2010698751708074e-04   1.8392490778930875e-04   3.6366500574736693e-04   1.0032800640398713e-04   1.0673849624159174e-04   1.0693326453109283e-04   9.8257637825623024e-05   3.6406408018822503e-04   1.8287617185139298e-04   6.2078250405655610e-04   3.9962427856852828e-04   7.2643228593471801e-04   6.2574461815634687e-04   6.1915366750550508e-04   7.2985354992341934e-04   3.6189328899284475e-04   6.5144706297544017e-04   1.0554035075744251e-04   4.3758223159674851e-04   9.6337087236180522e-08   2.1754967078188022e-04   1.7590242567857984e-04   3.5059293422329925e-04   3.3909154138689215e-04   3.3780313276951204e-04   4.8206593542007511e-04   3.8129303057125516e-04   5.2576649826219159e-04   4.6188251931895171e-04   4.4592230939768306e-04   5.3408015783897424e-04   2.8992655658291645e-04   5.5635101762747182e-04   1.5036747536240489e-04   5.1716255918631275e-04   1.1201161320190643e-04   4.4419185732252474e-04   3.8544711763995011e-04   6.0653199214746542e-04   3.7664944754103516e-04   4.7664355036316776e-04   3.1457458273623738e-04   3.1511759997678685e-04   2.4296024393475799e-04   2.2123573036389579e-04   2.0558777201144804e-04   2.5124770783704718e-04   2.2508934756120051e-04   3.8811861462494286e-04   2.9146433558132630e-04   5.5259179531654576e-04   3.6954311541604603e-04   6.5044286100345494e-04   6.1012444541929246e-04   7.0348263391197127e-04   4.5309183191509701e-04   5.0918220898639541e-04   2.1705321385890694e-04   2.3702942843933472e-04   4.5869052207292177e-05   4.6260801779950024e-05   4.0962937306608886e-05   4.8721336772347365e-05   2.0561111131408286e-04   2.4302510277679601e-04   4.4412124506230618e-04   5.1537772390871360e-04   6.1855198139921185e-04   7.0621352818514191e-04   </DataArray> 
</CellData> 
</Piece>
</UnstructuredGrid>
</VTKFile>