<?xml version="1.0"?>
<VTKFile type="UnstructuredGrid"  version="0.1"  >
<UnstructuredGrid>
<Piece  NumberOfPoints="1089" NumberOfCells="2048">
<Points>
<DataArray  type="Float64"  NumberOfComponents="3"  format="ascii">0 0 0  0.03125 0 0  0.0625 0 0  0.09375 0 0  0.125 0 0  0.15625 0 0  0.1875 0 0  0.21875 0 0  0.25 0 0  0.28125 0 0  0.3125 0 0  0.34375 0 0  0.375 0 0  0.40625 0 0  0.4375 0 0  0.46875 0 0  0.5 0 0  0.53125 0 0  0.5625 0 0  0.59375 0 0  0.625 0 0  0.65625 0 0  0.6875 0 0  0.71875 0 0  0.75 0 0  0.78125 0 0  0.8125 0 0  0.84375 0 0  0.875 0 0  0.90625 0 0  0.9375 0 0  0.96875 0 0  1 0 0  0 0.03125 0  0.03125 0.03125 0  0.0625 0.03125 0  0.09375 0.03125 0  0.125 0.03125 0  0.15625 0.03125 0  0.1875 0.03125 0  0.21875 0.03125 0  0.25 0.03125 0  0.28125 0.03125 0  0.3125 0.03125 0  0.34375 0.03125 0  0.375 0.03125 0  0.40625 0.03125 0  0.4375 0.03125 0  0.46875 0.03125 0  0.5 0.03125 0  0.53125 0.03125 0  0.5625 0.03125 0  0.59375 0.03125 0  0.625 0.03125 0  0.65625 0.03125 0  0.6875 0.03125 0  0.71875 0.03125 0  0.75 0.03125 0  0.78125 0.03125 0  0.8125 0.03125 0  0.84375 0.03125 0  0.875 0.03125 0  0.90625 0.03125 0  0.9375 0.03125 0  0.96875 0.03125 0  1 0.03125 0  0 0.0625 0  0.03125 0.0625 0  0.0625 0.0625 0  0.09375 0.0625 0  0.125 0.0625 0  0.15625 0.0625 0  0.1875 0.0625 0  0.21875 0.0625 0  0.25 0.0625 0  0.28125 0.0625 0  0.3125 0.0625 0  0.34375 0.0625 0  0.375 0.0625 0  0.40625 0.0625 0  0.4375 0.0625 0  0.46875 0.0625 0  0.5 0.0625 0  0.53125 0.0625 0  0.5625 0.0625 0  0.59375 0.0625 0  0.625 0.0625 0  0.65625 0.0625 0  0.6875 0.0625 0  0.71875 0.0625 0  0.75 0.0625 0  0.78125 0.0625 0  0.8125 0.0625 0  0.84375 0.0625 0  0.875 0.0625 0  0.90625 0.0625 0  0.9375 0.0625 0  0.96875 0.0625 0  1 0.0625 0  0 0.09375 0  0.03125 0.09375 0  0.0625 0.09375 0  0.09375 0.09375 0  0.125 0.09375 0  0.15625 0.09375 0  0.1875 0.09375 0  0.21875 0.09375 0  0.25 0.09375 0  0.28125 0.09375 0  0.3125 0.09375 0  0.34375 0.09375 0  0.375 0.09375 0  0.40625 0.09375 0  0.4375 0.09375 0  0.46875 0.09375 0  0.5 0.09375 0  0.53125 0.09375 0  0.5625 0.09375 0  0.59375 0.09375 0  0.625 0.09375 0  0.65625 0.09375 0  0.6875 0.09375 0  0.71875 0.09375 0  0.75 0.09375 0  0.78125 0.09375 0  0.8125 0.09375 0  0.84375 0.09375 0  0.875 0.09375 0  0.90625 0.09375 0  0.9375 0.09375 0  0.96875 0.09375 0  1 0.09375 0  0 0.125 0  0.03125 0.125 0  0.0625 0.125 0  0.09375 0.125 0  0.125 0.125 0  0.15625 0.125 0  0.1875 0.125 0  0.21875 0.125 0  0.25 0.125 0  0.28125 0.125 0  0.3125 0.125 0  0.34375 0.125 0  0.375 0.125 0  0.40625 0.125 0  0.4375 0.125 0  0.46875 0.125 0  0.5 0.125 0  0.53125 0.125 0  0.5625 0.125 0  0.59375 0.125 0  0.625 0.125 0  0.65625 0.125 0  0.6875 0.125 0  0.71875 0.125 0  0.75 0.125 0  0.78125 0.125 0  0.8125 0.125 0  0.84375 0.125 0  0.875 0.125 0  0.90625 0.125 0  0.9375 0.125 0  0.96875 0.125 0  1 0.125 0  0 0.15625 0  0.03125 0.15625 0  0.0625 0.15625 0  0.09375 0.15625 0  0.125 0.15625 0  0.15625 0.15625 0  0.1875 0.15625 0  0.21875 0.15625 0  0.25 0.15625 0  0.28125 0.15625 0  0.3125 0.15625 0  0.34375 0.15625 0  0.375 0.15625 0  0.40625 0.15625 0  0.4375 0.15625 0  0.46875 0.15625 0  0.5 0.15625 0  0.53125 0.15625 0  0.5625 0.15625 0  0.59375 0.15625 0  0.625 0.15625 0  0.65625 0.15625 0  0.6875 0.15625 0  0.71875 0.15625 0  0.75 0.15625 0  0.78125 0.15625 0  0.8125 0.15625 0  0.84375 0.15625 0  0.875 0.15625 0  0.90625 0.15625 0  0.9375 0.15625 0  0.96875 0.15625 0  1 0.15625 0  0 0.1875 0  0.03125 0.1875 0  0.0625 0.1875 0  0.09375 0.1875 0  0.125 0.1875 0  0.15625 0.1875 0  0.1875 0.1875 0  0.21875 0.1875 0  0.25 0.1875 0  0.28125 0.1875 0  0.3125 0.1875 0  0.34375 0.1875 0  0.375 0.1875 0  0.40625 0.1875 0  0.4375 0.1875 0  0.46875 0.1875 0  0.5 0.1875 0  0.53125 0.1875 0  0.5625 0.1875 0  0.59375 0.1875 0  0.625 0.1875 0  0.65625 0.1875 0  0.6875 0.1875 0  0.71875 0.1875 0  0.75 0.1875 0  0.78125 0.1875 0  0.8125 0.1875 0  0.84375 0.1875 0  0.875 0.1875 0  0.90625 0.1875 0  0.9375 0.1875 0  0.96875 0.1875 0  1 0.1875 0  0 0.21875 0  0.03125 0.21875 0  0.0625 0.21875 0  0.09375 0.21875 0  0.125 0.21875 0  0.15625 0.21875 0  0.1875 0.21875 0  0.21875 0.21875 0  0.25 0.21875 0  0.28125 0.21875 0  0.3125 0.21875 0  0.34375 0.21875 0  0.375 0.21875 0  0.40625 0.21875 0  0.4375 0.21875 0  0.46875 0.21875 0  0.5 0.21875 0  0.53125 0.21875 0  0.5625 0.21875 0  0.59375 0.21875 0  0.625 0.21875 0  0.65625 0.21875 0  0.6875 0.21875 0  0.71875 0.21875 0  0.75 0.21875 0  0.78125 0.21875 0  0.8125 0.21875 0  0.84375 0.21875 0  0.875 0.21875 0  0.90625 0.21875 0  0.9375 0.21875 0  0.96875 0.21875 0  1 0.21875 0  0 0.25 0  0.03125 0.25 0  0.0625 0.25 0  0.09375 0.25 0  0.125 0.25 0  0.15625 0.25 0  0.1875 0.25 0  0.21875 0.25 0  0.25 0.25 0  0.28125 0.25 0  0.3125 0.25 0  0.34375 0.25 0  0.375 0.25 0  0.40625 0.25 0  0.4375 0.25 0  0.46875 0.25 0  0.5 0.25 0  0.53125 0.25 0  0.5625 0.25 0  0.59375 0.25 0  0.625 0.25 0  0.65625 0.25 0  0.6875 0.25 0  0.71875 0.25 0  0.75 0.25 0  0.78125 0.25 0  0.8125 0.25 0  0.84375 0.25 0  0.875 0.25 0  0.90625 0.25 0  0.9375 0.25 0  0.96875 0.25 0  1 0.25 0  0 0.28125 0  0.03125 0.28125 0  0.0625 0.28125 0  0.09375 0.28125 0  0.125 0.28125 0  0.15625 0.28125 0  0.1875 0.28125 0  0.21875 0.28125 0  0.25 0.28125 0  0.28125 0.28125 0  0.3125 0.28125 0  0.34375 0.28125 0  0.375 0.28125 0  0.40625 0.28125 0  0.4375 0.28125 0  0.46875 0.28125 0  0.5 0.28125 0  0.53125 0.28125 0  0.5625 0.28125 0  0.59375 0.28125 0  0.625 0.28125 0  0.65625 0.28125 0  0.6875 0.28125 0  0.71875 0.28125 0  0.75 0.28125 0  0.78125 0.28125 0  0.8125 0.28125 0  0.84375 0.28125 0  0.875 0.28125 0  0.90625 0.28125 0  0.9375 0.28125 0  0.96875 0.28125 0  1 0.28125 0  0 0.3125 0  0.03125 0.3125 0  0.0625 0.3125 0  0.09375 0.3125 0  0.125 0.3125 0  0.15625 0.3125 0  0.1875 0.3125 0  0.21875 0.3125 0  0.25 0.3125 0  0.28125 0.3125 0  0.3125 0.3125 0  0.34375 0.3125 0  0.375 0.3125 0  0.40625 0.3125 0  0.4375 0.3125 0  0.46875 0.3125 0  0.5 0.3125 0  0.53125 0.3125 0  0.5625 0.3125 0  0.59375 0.3125 0  0.625 0.3125 0  0.65625 0.3125 0  0.6875 0.3125 0  0.71875 0.3125 0  0.75 0.3125 0  0.78125 0.3125 0  0.8125 0.3125 0  0.84375 0.3125 0  0.875 0.3125 0  0.90625 0.3125 0  0.9375 0.3125 0  0.96875 0.3125 0  1 0.3125 0  0 0.34375 0  0.03125 0.34375 0  0.0625 0.34375 0  0.09375 0.34375 0  0.125 0.34375 0  0.15625 0.34375 0  0.1875 0.34375 0  0.21875 0.34375 0  0.25 0.34375 0  0.28125 0.34375 0  0.3125 0.34375 0  0.34375 0.34375 0  0.375 0.34375 0  0.40625 0.34375 0  0.4375 0.34375 0  0.46875 0.34375 0  0.5 0.34375 0  0.53125 0.34375 0  0.5625 0.34375 0  0.59375 0.34375 0  0.625 0.34375 0  0.65625 0.34375 0  0.6875 0.34375 0  0.71875 0.34375 0  0.75 0.34375 0  0.78125 0.34375 0  0.8125 0.34375 0  0.84375 0.34375 0  0.875 0.34375 0  0.90625 0.34375 0  0.9375 0.34375 0  0.96875 0.34375 0  1 0.34375 0  0 0.375 0  0.03125 0.375 0  0.0625 0.375 0  0.09375 0.375 0  0.125 0.375 0  0.15625 0.375 0  0.1875 0.375 0  0.21875 0.375 0  0.25 0.375 0  0.28125 0.375 0  0.3125 0.375 0  0.34375 0.375 0  0.375 0.375 0  0.40625 0.375 0  0.4375 0.375 0  0.46875 0.375 0  0.5 0.375 0  0.53125 0.375 0  0.5625 0.375 0  0.59375 0.375 0  0.625 0.375 0  0.65625 0.375 0  0.6875 0.375 0  0.71875 0.375 0  0.75 0.375 0  0.78125 0.375 0  0.8125 0.375 0  0.84375 0.375 0  0.875 0.375 0  0.90625 0.375 0  0.9375 0.375 0  0.96875 0.375 0  1 0.375 0  0 0.40625 0  0.03125 0.40625 0  0.0625 0.40625 0  0.09375 0.40625 0  0.125 0.40625 0  0.15625 0.40625 0  0.1875 0.40625 0  0.21875 0.40625 0  0.25 0.40625 0  0.28125 0.40625 0  0.3125 0.40625 0  0.34375 0.40625 0  0.375 0.40625 0  0.40625 0.40625 0  0.4375 0.40625 0  0.46875 0.40625 0  0.5 0.40625 0  0.53125 0.40625 0  0.5625 0.40625 0  0.59375 0.40625 0  0.625 0.40625 0  0.65625 0.40625 0  0.6875 0.40625 0  0.71875 0.40625 0  0.75 0.40625 0  0.78125 0.40625 0  0.8125 0.40625 0  0.84375 0.40625 0  0.875 0.40625 0  0.90625 0.40625 0  0.9375 0.40625 0  0.96875 0.40625 0  1 0.40625 0  0 0.4375 0  0.03125 0.4375 0  0.0625 0.4375 0  0.09375 0.4375 0  0.125 0.4375 0  0.15625 0.4375 0  0.1875 0.4375 0  0.21875 0.4375 0  0.25 0.4375 0  0.28125 0.4375 0  0.3125 0.4375 0  0.34375 0.4375 0  0.375 0.4375 0  0.40625 0.4375 0  0.4375 0.4375 0  0.46875 0.4375 0  0.5 0.4375 0  0.53125 0.4375 0  0.5625 0.4375 0  0.59375 0.4375 0  0.625 0.4375 0  0.65625 0.4375 0  0.6875 0.4375 0  0.71875 0.4375 0  0.75 0.4375 0  0.78125 0.4375 0  0.8125 0.4375 0  0.84375 0.4375 0  0.875 0.4375 0  0.90625 0.4375 0  0.9375 0.4375 0  0.96875 0.4375 0  1 0.4375 0  0 0.46875 0  0.03125 0.46875 0  0.0625 0.46875 0  0.09375 0.46875 0  0.125 0.46875 0  0.15625 0.46875 0  0.1875 0.46875 0  0.21875 0.46875 0  0.25 0.46875 0  0.28125 0.46875 0  0.3125 0.46875 0  0.34375 0.46875 0  0.375 0.46875 0  0.40625 0.46875 0  0.4375 0.46875 0  0.46875 0.46875 0  0.5 0.46875 0  0.53125 0.46875 0  0.5625 0.46875 0  0.59375 0.46875 0  0.625 0.46875 0  0.65625 0.46875 0  0.6875 0.46875 0  0.71875 0.46875 0  0.75 0.46875 0  0.78125 0.46875 0  0.8125 0.46875 0  0.84375 0.46875 0  0.875 0.46875 0  0.90625 0.46875 0  0.9375 0.46875 0  0.96875 0.46875 0  1 0.46875 0  0 0.5 0  0.03125 0.5 0  0.0625 0.5 0  0.09375 0.5 0  0.125 0.5 0  0.15625 0.5 0  0.1875 0.5 0  0.21875 0.5 0  0.25 0.5 0  0.28125 0.5 0  0.3125 0.5 0  0.34375 0.5 0  0.375 0.5 0  0.40625 0.5 0  0.4375 0.5 0  0.46875 0.5 0  0.5 0.5 0  0.53125 0.5 0  0.5625 0.5 0  0.59375 0.5 0  0.625 0.5 0  0.65625 0.5 0  0.6875 0.5 0  0.71875 0.5 0  0.75 0.5 0  0.78125 0.5 0  0.8125 0.5 0  0.84375 0.5 0  0.875 0.5 0  0.90625 0.5 0  0.9375 0.5 0  0.96875 0.5 0  1 0.5 0  0 0.53125 0  0.03125 0.53125 0  0.0625 0.53125 0  0.09375 0.53125 0  0.125 0.53125 0  0.15625 0.53125 0  0.1875 0.53125 0  0.21875 0.53125 0  0.25 0.53125 0  0.28125 0.53125 0  0.3125 0.53125 0  0.34375 0.53125 0  0.375 0.53125 0  0.40625 0.53125 0  0.4375 0.53125 0  0.46875 0.53125 0  0.5 0.53125 0  0.53125 0.53125 0  0.5625 0.53125 0  0.59375 0.53125 0  0.625 0.53125 0  0.65625 0.53125 0  0.6875 0.53125 0  0.71875 0.53125 0  0.75 0.53125 0  0.78125 0.531
[...]
<CellData  Scalars="f_132692"> 
<DataArray  type="Float64"  Name="f_132692"  format="ascii">2.0856971729739479e-10   2.0711486279819569e-10   1.9912388088374157e-10   2.0426349139444884e-10   1.8629052201384467e-10   1.9240948772731205e-10   1.7052395152135802e-10   1.7740135478234153e-10   1.5242326399828153e-10   1.5985890737681582e-10   1.3268256574505730e-10   1.4046391865915968e-10   1.1206024927872154e-10   1.1996236777559739e-10   9.1348832787346164e-11   9.9141931978097211e-11   7.1344274778791446e-11   7.8802650585862838e-11   5.2815353214650213e-11   5.9726171296725173e-11   3.6474126941849354e-11   4.2645639544782721e-11   2.2948578683354731e-11   2.8217492619443686e-11   1.2758485915242339e-11   1.6996226773123576e-11   6.2954477976934789e-12   9.4130903692581832e-12   3.8078369101455046e-12   5.7595147307212293e-12   5.3912547444096178e-12   6.1759174021417050e-12   1.0984858050793295e-11   1.0646307927817016e-11   2.0373697330120204e-11   1.8998903717555124e-11   3.3196977659881555e-11   3.0912732648278028e-11   4.8961924435684789e-11   4.5929968949617067e-11   6.7062721219899167e-11   6.3473528640117707e-11   8.6803792008560122e-11   8.2869248818615519e-11   1.0742653338500481e-10   1.0337179931931265e-10   1.2813847009157333e-10   1.2419333242286010e-10   1.4814371750262194e-10   1.4453377165804232e-10   1.6667359844875145e-10   1.6361157669682028e-10   1.8301631503694155e-10   1.8069379355642825e-10   1.9654484750869347e-10   1.9512418654987940e-10   2.0674316568329548e-10   2.0634816840915659e-10   2.1323598047941414e-10   2.1393304898971949e-10   2.1581453364608542e-10   2.1757464176045688e-10   2.1068061657541530e-10   2.1718759313810680e-10   2.0195590510489697e-10   1.9351363514269959e-10   1.9155908937255945e-10   1.8967315561183758e-10   1.7797999955508298e-10   1.7726261012907077e-10   1.6179267584283425e-10   1.6221686453463522e-10   1.4362293649956372e-10   1.4511498409480646e-10   1.2416934332689848e-10   1.2661408721017189e-10   1.0417940010259765e-10   1.0742489855158090e-10   8.4421263282374700e-11   8.8284703007548151e-11   6.5654226331711366e-11   6.9929010719696035e-11   4.8599511099326149e-11   5.3063248822164825e-11   3.3912537042883557e-11   3.8335607605765938e-11   2.2157729787134348e-11   2.6312107989900228e-11   1.3786830705027534e-11   1.7454842881558143e-11   9.1215379576143033e-12   1.2104219604862055e-11   8.3411450179457115e-12   1.0465880662856652e-11   1.1475651528383419e-11   1.2602803457426091e-11   1.8404611304744642e-11   1.8432882046638925e-11   2.8861761909296480e-11   2.7732083925158548e-11   4.2445258103539938e-11   4.0143060725832762e-11   5.8633116263049455e-11   5.5188882195854442e-11   7.6803276966033089e-11   7.2291365998035643e-11   9.6257516234794713e-11   9.0793299360314384e-11   1.1624828974728480e-10   1.0998369917618646e-10   1.3600748474921261e-10   1.2912514007454860e-10   1.5477598572923246e-10   1.4748209845407369e-10   1.7183292883677456e-10   1.6434921280466847e-10   1.8652349647079209e-10   1.7907833597246552e-10   1.9828396505661014e-10   1.9110322390500569e-10   2.0666204555416784e-10   1.9996060368589048e-10   2.1133030505270924e-10   2.0530638160535989e-10   2.1207382640234641e-10   2.0691992161876335e-10   2.0499585867105908e-10   2.0481777068233598e-10   1.8607023600286511e-10   1.7688243122192020e-10   1.7506583636384495e-10   1.7213120955624282e-10   1.6139151082072775e-10   1.5957401502707943e-10   1.4563532473813603e-10   1.4494207828048225e-10   1.2839598494658031e-10   1.2879094482776422e-10   1.1033566737602310e-10   1.1173834851246254e-10   9.2148408350064307e-11   9.4437395787174204e-11   7.4533150587919599e-11   7.7552193159047004e-11   5.8166868135717623e-11   6.1731435171370391e-11   4.3678540402368815e-11   4.7583085382094974e-11   3.1624974402964621e-11   3.5650883294145355e-11   2.2469405209800126e-11   2.6393409675499643e-11   1.6563694769734091e-11   2.0166453173911519e-11   1.4134811507688590e-11   1.7209335985882395e-11   1.5276109527556686e-11   1.7635717718988548e-11   1.9943742346460796e-11   2.1429228859163801e-11   2.7958349028240870e-11   2.8444101081574422e-11   3.9011948089512312e-11   3.8410770088082920e-11   5.2679774525833376e-11   5.0946235726022893e-11   6.8436605508195751e-11   6.5568781362952313e-11   8.5676948134161164e-11   8.1716486988166882e-11   1.0373831462659806e-10   9.8768824600395300e-11   1.2192669197632949e-10   1.1607050562376686e-10   1.3954322668988278e-10   1.3295666212450609e-10   1.5591108754659042e-10   1.4877838820702183e-10   1.7040142079783418e-10   1.6292764294590905e-10   1.8245722163838098e-10   1.7486051454427520e-10   1.9161372849966373e-10   1.8411785898753958e-10   1.9751365439467574e-10   1.9034236381258988e-10   1.9991865038205064e-10   1.9329152824635555e-10   1.9871083765421370e-10   1.9284117723264677e-10   1.9032600630803005e-10   1.8910615985679106e-10   1.6739376373268188e-10   1.5780131375631586e-10   1.5616960550594397e-10   1.5236354125416003e-10   1.4284352647427163e-10   1.4006710997807290e-10   1.2801241348309514e-10   1.2630677472074241e-10   1.1223698930511911e-10   1.1159773557623900e-10   9.6122034906307067e-11   9.6502477990389259e-11   8.0286461956664073e-11   8.1598727967758229e-11   6.5338767386828477e-11   6.7458230846016593e-11   5.1853400303461242e-11   5.4624067933151790e-11   4.0348624841645096e-11   4.3589367081871841e-11   3.1266589830307880e-11   3.4778180931462527e-11   2.4956335080226966e-11   2.8529133323104836e-11   2.1660378523064905e-11   2.5082389350042038e-11   2.1505397464574324e-11   2.4570421778149058e-11   2.4497361531471745e-11   2.7012919589151123e-11   3.0521304240564832e-11   3.2316031632910177e-11   3.9345742008302692e-11   4.0275973728082266e-11   5.0631570881851951e-11   5.0586860396297423e-11   6.3945099264063029e-11   6.2852460216775081e-11   7.8774715998279501e-11   7.6601423000143012e-11   9.4550553457185660e-11   9.1305393503779168e-11   1.1066638972549889e-10   1.0639931520598666e-10   1.2650294604810211e-10   1.2130314288016572e-10   1.4145167583478372e-10   1.3544412693699284e-10   1.5493810487689264e-10   1.4827880695030187e-10   1.6644375685870614e-10   1.5931385549611191e-10   1.7552567201077612e-10   1.6812494507803251e-10   1.8183255303366718e-10   1.7437287473166018e-10   1.8511698629707975e-10   1.7781630809963238e-10   1.8524697330052757e-10   1.7832095036241993e-10   1.8220305315367964e-10   1.7585997966360401e-10   1.7266742027131206e-10   1.7063049690070858e-10   1.4670871515882389e-10   1.3699248863217126e-10   1.3562420322656412e-10   1.3112920306919374e-10   1.2306463615656862e-10   1.1948052801617899e-10   1.0960866534966293e-10   1.0701133726836876e-10   9.5765114210986677e-11   9.4180364987192248e-11   8.2064321023415925e-11   8.1477864439795279e-11   6.9032208095775625e-11   6.9389897917849809e-11   5.7169440248635514e-11   5.8380073266807100e-11   4.6931876530897258e-11   4.8871143627739252e-11   3.8712952780335170e-11   4.1228421279815119e-11   3.2828534673853379e-11   3.5745585541377287e-11   2.9504773025926726e-11   3.2633338962183742e-11   2.8869412160089840e-11   3.2011290952320369e-11   3.0946881112627836e-11   3.3903355516766287e-11   3.5657355337152841e-11   3.8236830667324535e-11   4.2819824795789653e-11   4.4845191895981129e-11   5.2159050522373499e-11   5.3474491486237287e-11   6.3316142335248215e-11   6.3793117479759924e-11   7.5862351197212050e-11   7.5404537156584923e-11   8.9315546085985227e-11   8.7862535169049742e-11   1.0315874173025629e-10   1.0068836050410020e-10   1.1685996381022569e-10   1.1338912283429513e-10   1.2989268432288623e-10   1.2547673026673018e-10   1.4175603197931701e-10   1.3648663868337203e-10   1.5199397882845072e-10   1.4599568823385340e-10   1.6021272340198482e-10   1.5363833479344478e-10   1.6609554441062545e-10   1.5912064272306216e-10   1.6941455276971364e-10   1.6223149165619616e-10   1.7003916262271145e-10   1.6285056239731174e-10   1.6794337379153801e-10   1.6095303445350229e-10   1.6318837416869081e-10   1.5660611742335209e-10   1.5274595581892193e-10   1.5007781256974835e-10   1.2481264363867263e-10   1.1525377192093960e-10   1.1421872066940072e-10   1.0924293802854665e-10   1.0281055115680524e-10   9.8603888702592190e-11   9.1126528740226778e-11   8.7794440835327946e-11   7.9608584815089346e-11   7.7204662608574127e-11   6.8697977377922855e-11   6.7238494571234156e-11   5.8813412466189009e-11   5.8277115702663693e-11   5.0334561799149082e-11   5.0664125313851278e-11   4.3587215670986828e-11   4.4691782126335060e-11   3.8830666442138842e-11   4.0589493434527130e-11   3.6247712307549502e-11   3.8514875135778429e-11   3.5937623505373400e-11   3.8547646283311328e-11   3.7912325320413224e-11   4.0686548462036525e-11   4.2095939444384493e-11   4.4849388549386571e-11   4.8327699935835845e-11   5.0876195521869260e-11   5.6368131396649268e-11   5.8535367335112767e-11   6.5908251867851054e-11   6.7532570826976824e-11   7.6581446724390965e-11   7.7522052363035395e-11   8.7977557135316545e-11   8.8119924443306340e-11   9.9658641374872572e-11   9.8918917530331619e-11   1.1117580259893178e-10   1.0950402997718992e-10   1.2208643485854574e-10   1.1946847425450782e-10   1.3197122130749406e-10   1.2842930604166758e-10   1.4045022491249270e-10   1.3604213454147541e-10   1.4719744206825662e-10   1.4201434722514860e-10   1.5195324449919007e-10   1.4611633870689051e-10   1.5453422161106400e-10   1.4819030922992640e-10   1.5484007223000519e-10   1.4815628908851011e-10   1.5285733231090120e-10   1.4601513851368472e-10   1.4866085506943025e-10   1.4184857643798796e-10   1.4238512271244283e-10   1.3581212572138432e-10   1.3134308676539019e-10   1.2823333271751507e-10   1.0254404634108128e-10   9.3420583496743561e-11   9.2773377322987544e-11   8.7545070062326348e-11   8.2855688133565956e-11   7.8238874442325451e-11   7.3271847236591190e-11   6.9393794447576235e-11   6.4384064888756217e-11   6.1321931734111444e-11   5.6532841554621540e-11   5.4330402570329634e-11   5.0019409239391259e-11   4.8686311719159954e-11   4.5093904809288652e-11   4.4605913598814425e-11   4.1945560017599221e-11   4.2245767743726828e-11   4.0695351548922777e-11   4.1696484586147570e-11   4.1391324103220095e-11   4.2979143043107438e-11   4.4006735238134177e-11   4.6044442167301456e-11   4.8441080553294894e-11   5.0774582240416289e-11   5.4523955319287837e-11   5.6987787231331912e-11   6.2021602751911174e-11   6.4445288795707503e-11   7.0645896910219005e-11   7.2860501322477634e-11   8.0065414895438591e-11   8.1910034766685455e-11   8.9918172767277462e-11   9.1246121842003416e-11   9.9825535580626319e-11   1.0050998190934172e-10   1.0940676668843365e-10   1.0934560790245886e-10   1.1829365661542688e-10   1.1741344633287058e-10   1.2614466829455190e-10   1.2440344447711313e-10   1.3265805332886449e-10   1.3004696311836307e-10   1.3758343255717169e-10   1.3412709682191805e-10   1.4073139232106425e-10   1.3648700494473237e-10   1.4198072376421924e-10   1.3703593279849828e-10   1.4128302261199121e-10   1.3575268937008036e-10   1.3866445975097291e-10   1.3268643936940715e-10   1.3422452046669132e-10   1.2795475221023590e-10   1.2813209307042979e-10   1.2173913336663925e-10   1.2058974008331960e-10   1.1427493105558108e-10   1.0928452420402367e-10   1.0593574824919414e-10   8.0756988538934051e-11   7.2332188558425657e-11   7.2110932618103312e-11   6.6869138078716721e-11   6.3965335331938896e-11   5.9167836198282048e-11   5.6728969245015014e-11   5.2516306785531277e-11   5.0674816431649190e-11   4.7142274317032517e-11   4.6034743064334243e-11   4.3249316420105903e-11   4.2986680139406992e-11   4.0985709545601098e-11   4.1647624919451128e-11   4.0437922543347150e-11   4.2068990867780274e-11   4.1626811029521466e-11   4.4234571769124328e-11   4.4506617630849406e-11   4.8061142707801067e-11   4.8966649583651781e-11   5.3401651164122574e-11   5.4835502534993708e-11   6.0050865969388512e-11   6.1887637174843472e-11   6.7753263527795904e-11   6.9852043221331683e-11   7.6212847099663279e-11   7.8422653065607971e-11   8.5104521448639255e-11   8.7270103264986199e-11   9.4086585630848048e-11   9.6054391389341896e-11   1.0281386375402158e-10   1.0443794167676428e-10   1.1095096898289025e-10   1.1209857734136738e-10   1.1818519086784505e-10   1.1874190097800144e-10   1.2423851043652485e-10   1.2411260724940231e-10   1.2887828090820721e-10   1.2800429308632693e-10   1.3192616306038456e-10   1.3026738842161052e-10   1.3326497132736569e-10   1.3081490280265138e-10   1.3284316673215799e-10   1.2962576720541763e-10   1.3067682129058633e-10   1.2674564230413868e-10   1.2684896713169476e-10   1.2228515935328977e-10   1.2150631479377423e-10   1.1641565179962694e-10   1.1485326708037355e-10   1.0936251962426316e-10   1.0714341642704866e-10   1.0139663411098829e-10   9.8639929642594418e-11   9.2821751395211534e-11   8.7418455897263258e-11   8.4041989986199344e-11   6.0288121957947787e-11   5.2799151061638335e-11   5.3024834713892211e-11   4.8009620574735130e-11   4.6864891998843188e-11   4.2123563771880882e-11   4.2133036674121453e-11   3.7810506613874312e-11   3.9007055208993679e-11   3.5210554558337178e-11   3.7606514356595556e-11   3.4421009450686930e-11   3.7984942583920266e-11   3.5471154719362766e-11   4.0127691534841865e-11   3.8320233275369029e-11   4.3952381134881252e-11   4.2858608487639927e-11   4.9312019691919701e-11   4.8911821709597322e-11   5.6000636198063221e-11   5.6247234260853926e-11   6.3761190236459656e-11   6.4582944648229669e-11   7.2295448230372522e-11   7.3598614104724876e-11   8.1275443851562823e-11   8.2947774573180346e-11   9.0356081294154697e-11   9.2271142502769341e-11   9.9188396804630454e-11   1.0121042557744702e-10   1.0743296875469634e-10   1.0942209141340110e-10   1.1477296086911139e-10   1.1659056899609387e-10   1.2092629731155387e-10   1.2244037551726135e-10   1.2565650167071180e-10   1.2674670258023261e-10   1.2878178324155356e-10   1.2934405497080245e-10   1.3018202138393829e-10   1.3013261005114563e-10   1.2980337962470892e-10   1.2908205349930441e-10   1.2766037225376279e-10   1.2623274415074666e-10   1.2383530338847337e-10   1.2169416329596383e-10   1.1847509617560711e-10   1.1564070753256878e-10   1.1178561954525530e-10   1.0830498414561020e-10   1.0402368642119886e-10   9.9968859241634177e-11   9.5486833382912606e-11   9.0952591249740687e-11   8.6501005701594798e-11   8.1602617695381389e-11   7.7379695761208364e-11   7.2277034803896411e-11   6.6585166006792898e-11   6.3393565119022408e-11   4.1923909106548208e-11   3.5572184421952140e-11   3.6248345960733509e-11   3.1691266751358740e-11   3.2211340698273596e-11   2.7761033045376096e-11   3.0044792493120821e-11   2.5841512937233544e-11   2.9828985987754274e-11   2.5985295925209597e-11   3.1571861993129298e-11   2.8184743397055927e-11   3.5206232956542487e-11   3.2354557003482098e-11   4.0592355769104476e-11   3.8334208850565711e-11   4.7523219033922320e-11   4.5893799999090158e-11   5.5732465508148410e-11   5.4742783713720068e-11   6.4904616045660944e-11   6.4541086867632779e-11   7.4687189288859240e-11   7.4912162459201585e-11   8.4704246101127635e-11   8.5457454548881407e-11   9.4570836307033127e-11   9.5771712788310855e-11   1.0390779191016747e-10   1.0545856543130086e-10   1.1235629808574533e-10   1.1414575146725375e-10   1.1959168193666854e-10   1.2149942624363686e-10   1.2533588910245741e-10   1.2723699074211801e-10   1.2936816874227478e-10   1.3113795148357461e-10   1.3153355628408489e-10   1.3305239373427771e-10   1.3174882799232191e-10   1.3290674242744163e-10   1.3000569862866599e-10   1.3070658946406404e-10   1.2637113949026144e-10   1.2653647884135578e-10   1.2098480463121831e-10   1.2055665797614103e-10   1.1405366329912188e-10   1.1299692009460650e-10   1.0584404087659660e-10   1.0414777384876829e-10   9.6671361840511214e-11   9.4349277599168359e-11   8.6887953791822348e-11   8.3977963197786068e-11   7.6869211943461507e-11   7.3432350815664072e-11   6.6998260977340433e-11   6.3117746410359341e-11   5.7626375742671912e-11   5.3430389964857040e-11   4.7585212148900177e-11   4.4784082862441852e-11   2.6370077274175807e-11   2.1313338062793157e-11   2.2426130586941354e-11   1.8541189355331542e-11   2.0567759161256927e-11   1.6632189005109270e-11   2.0928737529021849e-11   1.7069286726028373e-11   2.3493273042935075e-11   1.9821022062482042e-11   2.8162646843269843e-11   2.4780178499460995e-11   3.4757286014985477e-11   3.1755688322081242e-11   4.3023712797103015e-11   4.0479311869846687e-11   5.2644235971001970e-11   5.0615741255098972e-11   6.3249138847012224e-11   6.1775417176831650e-11   7.4430879369159584e-11   7.3529472545782462e-11   8.5759748987696619e-11   8.5426203555811600e-11   9.6800385235462946e-11   9.7008424896643432e-11   1.0712850218044229e-10   1.0783103798955071e-10   1.1634719536409168e-10   1.1747813552121561e-10   1.2410219448861510e-10   1.2557898440361105e-10   1.3009547765873349e-10   1.3182227276195242e-10   1.3409672398696806e-10   1.3596807339288891e-10   1.3595216445877850e-10   1.3785706394241260e-10   1.3559049095692147e-10   1.3741664948531899e-10   1.3302559642676000e-10   1.3466375224770014e-10   1.2835604097980614e-10   1.2970416130004996e-10   1.2176126454903137e-10   1.2272846727627150e-10   1.1349469155303648e-10   1.1400473840281769e-10   1.0387399174068658e-10   1.0386821930083193e-10   9.3268868617071616e-11   9.2708448158373517e-11   8.2086836773044285e-11   8.0954286406830426e-11   7.0757511606641040e-11   6.9057434788046566e-11   5.9715885520294561e-11   5.7475075881410210e-11   4.9384822705757601e-11   4.6652416713917667e-11   4.0139241538146056e-11   3.7006152538947187e-11   3.1148725775059540e-11   2.8928754961026486e-11   1.4224379967639522e-11   1.0570579508535729e-11   1.2089373184212384e-11   9.0647476227064612e-12   1.2381596288260621e-11   9.1647151675455527e-12   1.5135188079821714e-11   1.1830944404154444e-11   2.0243386111106046e-11   1.6954625822884370e-11   2.7509873839561288e-11   2.4338153595828173e-11   3.6655343334256434e-11   3.3697565944758948e-11   4.7328314306322134e-11   4.4673109209423504e-11   5.9118621226864038e-11   5.6842971089147701e-11   7.1573166197265965e-11   6.9739460816093906e-11   8.4213327185035961e-11   8.2866970539277547e-11   9.6553349640603543e-11   9.5721016742446142e-11   1.0811901320760198e-10   1.0780762560118040e-10   1.1846585555098601e-10   1.1866231554152044e-10   1.2719625271582157e-10   1.2786794681629534e-10   1.3397469953921023e-10   1.3507075189390747e-10   1.3854070286413816e-10   1.3999393052655943e-10   1.4071879207793192e-10   1.4244828701602741e-10   1.4042526228353313e-10   1.4233950088443515e-10   1.3767139099488896e-10   1.3967175154445951e-10   1.3256300478082040e-10   1.3454755768435138e-10   1.2529641255993832e-10   1.2716383755950004e-10   1.1615086185841267e-10   1.1780434162091647e-10   1.0547780784483132e-10   1.0682874833368465e-10   9.3687407064049937e-11   9.4658842252874454e-11   8.1232753517262578e-11   8.1762305475622690e-11   6.8592459185290871e-11   6.8634745132554238e-11   5.6252236481292181e-11   5.5780647937738826e-11   4.4686109744156875e-11   4.3694004414253826e-11   3.4337673146334249e-11   3.2839414698546328e-11   2.5590392408953018e-11   2.3635541560946736e-11   1.7907346401398228e-11   1.6436926951371829e-11   5.9535936390986622e-12   3.7567482817955985e-12   5.6353250694581423e-12   3.6261229724541457e-12   7.9674470712037514e-12   5.6455912213192731e-12   1.2886787771650857e-11   1.0327798805914056e-11   2.0204216042836307e-11   1.7496264911342191e-11   2.9638627585936621e-11   2.6875657820685192e-11   4.0827461657315588e-11   3.8105566311748751e-11   5.3340733882244258e-11   5.0754436692743013e-11   6.6697564038842750e-11   6.4336180911127179e-11   8.0384655800461932e-11   7.8328860500194220e-11   9.3876021725728927e-11   9.2194745053640788e-11   1.0665319619418539e-10   1.0540097686814655e-10   1.1822515951269354e-10   1.1744004824675489e-10   1.2814720743230888e-10   1.2784930465858767e-10   1.360380