<?xml version="1.0"?>
<VTKFile type="UnstructuredGrid"  version="0.1"  >
<UnstructuredGrid>
<Piece  NumberOfPoints="81" NumberOfCells="128">
<Points>
<DataArray  type="Float64"  NumberOfComponents="3"  format="ascii">0 0 0  0.125 0 0  0.25 0 0  0.375 0 0  0.5 0 0  0.625 0 0  0.75 0 0  0.875 0 0  1 0 0  0 0.125 0  0.125 0.125 0  0.25 0.125 0  0.375 0.125 0  0.5 0.125 0  0.625 0.125 0  0.75 0.125 0  0.875 0.125 0  1 0.125 0  0 0.25 0  0.125 0.25 0  0.25 0.25 0  0.375 0.25 0  0.5 0.25 0  0.625 0.25 0  0.75 0.25 0  0.875 0.25 0  1 0.25 0  0 0.375 0  0.125 0.375 0  0.25 0.375 0  0.375 0.375 0  0.5 0.375 0  0.625 0.375 0  0.75 0.375 0  0.875 0.375 0  1 0.375 0  0 0.5 0  0.125 0.5 0  0.25 0.5 0  0.375 0.5 0  0.5 0.5 0  0.625 0.5 0  0.75 0.5 0  0.875 0.5 0  1 0.5 0  0 0.625 0  0.125 0.625 0  0.25 0.625 0  0.375 0.625 0  0.5 0.625 0  0.625 0.625 0  0.75 0.625 0  0.875 0.625 0  1 0.625 0  0 0.75 0  0.125 0.75 0  0.25 0.75 0  0.375 0.75 0  0.5 0.75 0  0.625 0.75 0  0.75 0.75 0  0.875 0.75 0  1 0.75 0  0 0.875 0  0.125 0.875 0  0.25 0.875 0  0.375 0.875 0  0.5 0.875 0  0.625 0.875 0  0.75 0.875 0  0.875 0.875 0  1 0.875 0  0 1 0  0.125 1 0  0.25 1 0  0.375 1 0  0.5 1 0  0.625 1 0  0.75 1 0  0.875 1 0  1 1 0  </DataArray>
</Points>
<Cells>
<DataArray  type="UInt32"  Name="connectivity"  format="ascii">0 1 10  0 9 10  1 2 11  1 10 11  2 3 12  2 11 12  3 4 13  3 12 13  4 5 14  4 13 14  5 6 15  5 14 15  6 7 16  6 15 16  7 8 17  7 16 17  9 10 19  9 18 19  10 11 20  10 19 20  11 12 21  11 20 21  12 13 22  12 21 22  13 14 23  13 22 23  14 15 24  14 23 24  15 16 25  15 24 25  16 17 26  16 25 26  18 19 28  18 27 28  19 20 29  19 28 29  20 21 30  20 29 30  21 22 31  21 30 31  22 23 32  22 31 32  23 24 33  23 32 33  24 25 34  24 33 34  25 26 35  25 34 35  27 28 37  27 36 37  28 29 38  28 37 38  29 30 39  29 38 39  30 31 40  30 39 40  31 32 41  31 40 41  32 33 42  32 41 42  33 34 43  33 42 43  34 35 44  34 43 44  36 37 46  36 45 46  37 38 47  37 46 47  38 39 48  38 47 48  39 40 49  39 48 49  40 41 50  40 49 50  41 42 51  41 50 51  42 43 52  42 51 52  43 44 53  43 52 53  45 46 55  45 54 55  46 47 56  46 55 56  47 48 57  47 56 57  48 49 58  48 57 58  49 50 59  49 58 59  50 51 60  50 59 60  51 52 61  51 60 61  52 53 62  52 61 62  54 55 64  54 63 64  55 56 65  55 64 65  56 57 66  56 65 66  57 58 67  57 66 67  58 59 68  58 67 68  59 60 69  59 68 69  60 61 70  60 69 70  61 62 71  61 70 71  63 64 73  63 72 73  64 65 74  64 73 74  65 66 75  65 74 75  66 67 76  66 75 76  67 68 77  67 76 77  68 69 78  68 77 78  69 70 79  69 78 79  70 71 80  70 79 80  </DataArray>
<DataArray  type="UInt32"  Name="offsets"  format="ascii">3 6 9 12 15 18 21 24 27 30 33 36 39 42 45 48 51 54 57 60 63 66 69 72 75 78 81 84 87 90 93 96 99 102 105 108 111 114 117 120 123 126 129 132 135 138 141 144 147 150 153 156 159 162 165 168 171 174 177 180 183 186 189 192 195 198 201 204 207 210 213 216 219 222 225 228 231 234 237 240 243 246 249 252 255 258 261 264 267 270 273 276 279 282 285 288 291 294 297 300 303 306 309 312 315 318 321 324 327 330 333 336 339 342 345 348 351 354 357 360 363 366 369 372 375 378 381 384 </DataArray>
<DataArray  type="UInt8"  Name="types"  format="ascii">5 5 5 5 5 5 5 5 5 5 5 5 5 5 5 5 5 5 5 5 5 5 5 5 5 5 5 5 5 5 5 5 5 5 5 5 5 5 5 5 5 5 5 5 5 5 5 5 5 5 5 5 5 5 5 5 5 5 5 5 5 5 5 5 5 5 5 5 5 5 5 5 5 5 5 5 5 5 5 5 5 5 5 5 5 5 5 5 5 5 5 5 5 5 5 5 5 5 5 5 5 5 5 5 5 5 5 5 5 5 5 5 5 5 5 5 5 5 5 5 5 5 5 5 5 5 5 5 </DataArray>
</Cells>
<CellData  Scalars="f_87494"> 
<DataArray  type="Float64"  Name="f_87494"  format="ascii">6.7723883997050866e-07   6.5308244331380399e-07   3.9368376499755415e-07   4.5419593711304503e-07   1.2778700643268971e-07   2.0523328481494654e-07   3.5636180129526948e-08   8.2179213765622919e-08   1.7131140843480593e-07   1.5705376093067102e-07   4.5560807743532951e-07   3.8610391607253113e-07   7.2185750938004150e-07   6.3522047568785197e-07   8.1063424613691509e-07   7.5929105069581566e-07   4.2307355825948640e-07   3.2756908506144401e-07   2.4733572099512377e-07   2.2497212441403681e-07   1.5291733252618730e-07   1.7897280513887534e-07   1.9649114031086886e-07   2.3774567131876130e-07   3.5258036883221507e-07   3.6616610872478033e-07   5.2971619677048962e-07   4.8900702002324189e-07   6.2254964754545414e-07   5.3430647941254593e-07   5.7120589360146848e-07   4.7619434964096770e-07   1.4439803607900617e-07   6.8091393093953351e-08   1.5558941059545896e-07   1.0513117341015893e-07   2.6678610748186946e-07   2.5183832315337783e-07   4.1450313662375962e-07   4.3289617840772817e-07   5.1216411448199139e-07   5.4205890932521394e-07   5.0248678127757309e-07   5.1538283630483759e-07   3.9030281153119509e-07   3.6853259693107595e-07   2.3563373860074785e-07   1.8719006781710452e-07   4.0444709113576384e-08   2.7310769130649424e-08   1.9748738076094732e-07   1.6601338822812897e-07   4.1502341592774224e-07   3.8262167992147425e-07   5.6676206861465693e-07   5.5477297628547232e-07   5.6375975522501517e-07   5.8214821783393157e-07   4.0778301007547654e-07   4.4872347584798741e-07   1.9016881608846352e-07   2.3270614130477553e-07   3.3131872169681115e-08   5.9039847390244357e-08   1.7143918023298533e-07   2.2923687324276318e-07   3.4751638075607074e-07   3.7195385524846107e-07   5.1028885334824544e-07   4.9466098796850821e-07   5.6428199036348390e-07   5.3190185350847133e-07   4.7780995368399933e-07   4.6287038570529716e-07   3.0160764966576335e-07   3.2802133217510491e-07   1.3946627375353951e-07   2.0637814743752547e-07   8.2368675855022705e-08   1.6691145445393055e-07   4.6070141514202152e-07   5.5582789879000287e-07   5.1780435665742120e-07   6.0228545995564366e-07   4.9678831731947756e-07   5.2222064232036880e-07   4.0852379873223973e-07   3.7764879189259851e-07   3.0467034105294253e-07   2.5416503125497416e-07   2.4617774011493269e-07   2.2411724737001352e-07   2.6797714786148759e-07   3.0507442007990222e-07   3.5467465588859758e-07   4.4761795712726996e-07   7.3888623104292049e-07   8.1477258031642490e-07   6.0858617844365672e-07   7.2008284042038309e-07   3.8243329689292499e-07   4.4780785826462849e-07   1.9074640445057745e-07   1.8199981305825948e-07   1.4578904487264490e-07   7.8539397185907212e-08   2.7397164810192396e-07   1.9812820532382349e-07   5.0038310345350813e-07   4.7073389025227517e-07   6.9059548458347942e-07   7.3614955716582048e-07   8.4272319740887992e-07   8.5473967697231079e-07   5.6717083199323794e-07   6.5735990661119715e-07   2.3434397232313251e-07   3.1379449123757172e-07   3.7480097706861697e-08   5.5633410667834674e-08   9.2007236996042633e-08   3.4788129797437195e-08   3.6610371284832885e-07   2.6372983803266401e-07   6.9954979388128445e-07   6.0839682681382565e-07   8.9352765566481758e-07   8.6681335116647167e-07   </DataArray> 
</CellData> 
</Piece>
</UnstructuredGrid>
</VTKFile>