<?xml version="1.0"?>
<VTKFile type="UnstructuredGrid"  version="0.1"  >
<UnstructuredGrid>
<Piece  NumberOfPoints="1089" NumberOfCells="2048">
<Points>
<DataArray  type="Float64"  NumberOfComponents="3"  format="ascii">0 0 0  0.03125 0 0  0.0625 0 0  0.09375 0 0  0.125 0 0  0.15625 0 0  0.1875 0 0  0.21875 0 0  0.25 0 0  0.28125 0 0  0.3125 0 0  0.34375 0 0  0.375 0 0  0.40625 0 0  0.4375 0 0  0.46875 0 0  0.5 0 0  0.53125 0 0  0.5625 0 0  0.59375 0 0  0.625 0 0  0.65625 0 0  0.6875 0 0  0.71875 0 0  0.75 0 0  0.78125 0 0  0.8125 0 0  0.84375 0 0  0.875 0 0  0.90625 0 0  0.9375 0 0  0.96875 0 0  1 0 0  0 0.03125 0  0.03125 0.03125 0  0.0625 0.03125 0  0.09375 0.03125 0  0.125 0.03125 0  0.15625 0.03125 0  0.1875 0.03125 0  0.21875 0.03125 0  0.25 0.03125 0  0.28125 0.03125 0  0.3125 0.03125 0  0.34375 0.03125 0  0.375 0.03125 0  0.40625 0.03125 0  0.4375 0.03125 0  0.46875 0.03125 0  0.5 0.03125 0  0.53125 0.03125 0  0.5625 0.03125 0  0.59375 0.03125 0  0.625 0.03125 0  0.65625 0.03125 0  0.6875 0.03125 0  0.71875 0.03125 0  0.75 0.03125 0  0.78125 0.03125 0  0.8125 0.03125 0  0.84375 0.03125 0  0.875 0.03125 0  0.90625 0.03125 0  0.9375 0.03125 0  0.96875 0.03125 0  1 0.03125 0  0 0.0625 0  0.03125 0.0625 0  0.0625 0.0625 0  0.09375 0.0625 0  0.125 0.0625 0  0.15625 0.0625 0  0.1875 0.0625 0  0.21875 0.0625 0  0.25 0.0625 0  0.28125 0.0625 0  0.3125 0.0625 0  0.34375 0.0625 0  0.375 0.0625 0  0.40625 0.0625 0  0.4375 0.0625 0  0.46875 0.0625 0  0.5 0.0625 0  0.53125 0.0625 0  0.5625 0.0625 0  0.59375 0.0625 0  0.625 0.0625 0  0.65625 0.0625 0  0.6875 0.0625 0  0.71875 0.0625 0  0.75 0.0625 0  0.78125 0.0625 0  0.8125 0.0625 0  0.84375 0.0625 0  0.875 0.0625 0  0.90625 0.0625 0  0.9375 0.0625 0  0.96875 0.0625 0  1 0.0625 0  0 0.09375 0  0.03125 0.09375 0  0.0625 0.09375 0  0.09375 0.09375 0  0.125 0.09375 0  0.15625 0.09375 0  0.1875 0.09375 0  0.21875 0.09375 0  0.25 0.09375 0  0.28125 0.09375 0  0.3125 0.09375 0  0.34375 0.09375 0  0.375 0.09375 0  0.40625 0.09375 0  0.4375 0.09375 0  0.46875 0.09375 0  0.5 0.09375 0  0.53125 0.09375 0  0.5625 0.09375 0  0.59375 0.09375 0  0.625 0.09375 0  0.65625 0.09375 0  0.6875 0.09375 0  0.71875 0.09375 0  0.75 0.09375 0  0.78125 0.09375 0  0.8125 0.09375 0  0.84375 0.09375 0  0.875 0.09375 0  0.90625 0.09375 0  0.9375 0.09375 0  0.96875 0.09375 0  1 0.09375 0  0 0.125 0  0.03125 0.125 0  0.0625 0.125 0  0.09375 0.125 0  0.125 0.125 0  0.15625 0.125 0  0.1875 0.125 0  0.21875 0.125 0  0.25 0.125 0  0.28125 0.125 0  0.3125 0.125 0  0.34375 0.125 0  0.375 0.125 0  0.40625 0.125 0  0.4375 0.125 0  0.46875 0.125 0  0.5 0.125 0  0.53125 0.125 0  0.5625 0.125 0  0.59375 0.125 0  0.625 0.125 0  0.65625 0.125 0  0.6875 0.125 0  0.71875 0.125 0  0.75 0.125 0  0.78125 0.125 0  0.8125 0.125 0  0.84375 0.125 0  0.875 0.125 0  0.90625 0.125 0  0.9375 0.125 0  0.96875 0.125 0  1 0.125 0  0 0.15625 0  0.03125 0.15625 0  0.0625 0.15625 0  0.09375 0.15625 0  0.125 0.15625 0  0.15625 0.15625 0  0.1875 0.15625 0  0.21875 0.15625 0  0.25 0.15625 0  0.28125 0.15625 0  0.3125 0.15625 0  0.34375 0.15625 0  0.375 0.15625 0  0.40625 0.15625 0  0.4375 0.15625 0  0.46875 0.15625 0  0.5 0.15625 0  0.53125 0.15625 0  0.5625 0.15625 0  0.59375 0.15625 0  0.625 0.15625 0  0.65625 0.15625 0  0.6875 0.15625 0  0.71875 0.15625 0  0.75 0.15625 0  0.78125 0.15625 0  0.8125 0.15625 0  0.84375 0.15625 0  0.875 0.15625 0  0.90625 0.15625 0  0.9375 0.15625 0  0.96875 0.15625 0  1 0.15625 0  0 0.1875 0  0.03125 0.1875 0  0.0625 0.1875 0  0.09375 0.1875 0  0.125 0.1875 0  0.15625 0.1875 0  0.1875 0.1875 0  0.21875 0.1875 0  0.25 0.1875 0  0.28125 0.1875 0  0.3125 0.1875 0  0.34375 0.1875 0  0.375 0.1875 0  0.40625 0.1875 0  0.4375 0.1875 0  0.46875 0.1875 0  0.5 0.1875 0  0.53125 0.1875 0  0.5625 0.1875 0  0.59375 0.1875 0  0.625 0.1875 0  0.65625 0.1875 0  0.6875 0.1875 0  0.71875 0.1875 0  0.75 0.1875 0  0.78125 0.1875 0  0.8125 0.1875 0  0.84375 0.1875 0  0.875 0.1875 0  0.90625 0.1875 0  0.9375 0.1875 0  0.96875 0.1875 0  1 0.1875 0  0 0.21875 0  0.03125 0.21875 0  0.0625 0.21875 0  0.09375 0.21875 0  0.125 0.21875 0  0.15625 0.21875 0  0.1875 0.21875 0  0.21875 0.21875 0  0.25 0.21875 0  0.28125 0.21875 0  0.3125 0.21875 0  0.34375 0.21875 0  0.375 0.21875 0  0.40625 0.21875 0  0.4375 0.21875 0  0.46875 0.21875 0  0.5 0.21875 0  0.53125 0.21875 0  0.5625 0.21875 0  0.59375 0.21875 0  0.625 0.21875 0  0.65625 0.21875 0  0.6875 0.21875 0  0.71875 0.21875 0  0.75 0.21875 0  0.78125 0.21875 0  0.8125 0.21875 0  0.84375 0.21875 0  0.875 0.21875 0  0.90625 0.21875 0  0.9375 0.21875 0  0.96875 0.21875 0  1 0.21875 0  0 0.25 0  0.03125 0.25 0  0.0625 0.25 0  0.09375 0.25 0  0.125 0.25 0  0.15625 0.25 0  0.1875 0.25 0  0.21875 0.25 0  0.25 0.25 0  0.28125 0.25 0  0.3125 0.25 0  0.34375 0.25 0  0.375 0.25 0  0.40625 0.25 0  0.4375 0.25 0  0.46875 0.25 0  0.5 0.25 0  0.53125 0.25 0  0.5625 0.25 0  0.59375 0.25 0  0.625 0.25 0  0.65625 0.25 0  0.6875 0.25 0  0.71875 0.25 0  0.75 0.25 0  0.78125 0.25 0  0.8125 0.25 0  0.84375 0.25 0  0.875 0.25 0  0.90625 0.25 0  0.9375 0.25 0  0.96875 0.25 0  1 0.25 0  0 0.28125 0  0.03125 0.28125 0  0.0625 0.28125 0  0.09375 0.28125 0  0.125 0.28125 0  0.15625 0.28125 0  0.1875 0.28125 0  0.21875 0.28125 0  0.25 0.28125 0  0.28125 0.28125 0  0.3125 0.28125 0  0.34375 0.28125 0  0.375 0.28125 0  0.40625 0.28125 0  0.4375 0.28125 0  0.46875 0.28125 0  0.5 0.28125 0  0.53125 0.28125 0  0.5625 0.28125 0  0.59375 0.28125 0  0.625 0.28125 0  0.65625 0.28125 0  0.6875 0.28125 0  0.71875 0.28125 0  0.75 0.28125 0  0.78125 0.28125 0  0.8125 0.28125 0  0.84375 0.28125 0  0.875 0.28125 0  0.90625 0.28125 0  0.9375 0.28125 0  0.96875 0.28125 0  1 0.28125 0  0 0.3125 0  0.03125 0.3125 0  0.0625 0.3125 0  0.09375 0.3125 0  0.125 0.3125 0  0.15625 0.3125 0  0.1875 0.3125 0  0.21875 0.3125 0  0.25 0.3125 0  0.28125 0.3125 0  0.3125 0.3125 0  0.34375 0.3125 0  0.375 0.3125 0  0.40625 0.3125 0  0.4375 0.3125 0  0.46875 0.3125 0  0.5 0.3125 0  0.53125 0.3125 0  0.5625 0.3125 0  0.59375 0.3125 0  0.625 0.3125 0  0.65625 0.3125 0  0.6875 0.3125 0  0.71875 0.3125 0  0.75 0.3125 0  0.78125 0.3125 0  0.8125 0.3125 0  0.84375 0.3125 0  0.875 0.3125 0  0.90625 0.3125 0  0.9375 0.3125 0  0.96875 0.3125 0  1 0.3125 0  0 0.34375 0  0.03125 0.34375 0  0.0625 0.34375 0  0.09375 0.34375 0  0.125 0.34375 0  0.15625 0.34375 0  0.1875 0.34375 0  0.21875 0.34375 0  0.25 0.34375 0  0.28125 0.34375 0  0.3125 0.34375 0  0.34375 0.34375 0  0.375 0.34375 0  0.40625 0.34375 0  0.4375 0.34375 0  0.46875 0.34375 0  0.5 0.34375 0  0.53125 0.34375 0  0.5625 0.34375 0  0.59375 0.34375 0  0.625 0.34375 0  0.65625 0.34375 0  0.6875 0.34375 0  0.71875 0.34375 0  0.75 0.34375 0  0.78125 0.34375 0  0.8125 0.34375 0  0.84375 0.34375 0  0.875 0.34375 0  0.90625 0.34375 0  0.9375 0.34375 0  0.96875 0.34375 0  1 0.34375 0  0 0.375 0  0.03125 0.375 0  0.0625 0.375 0  0.09375 0.375 0  0.125 0.375 0  0.15625 0.375 0  0.1875 0.375 0  0.21875 0.375 0  0.25 0.375 0  0.28125 0.375 0  0.3125 0.375 0  0.34375 0.375 0  0.375 0.375 0  0.40625 0.375 0  0.4375 0.375 0  0.46875 0.375 0  0.5 0.375 0  0.53125 0.375 0  0.5625 0.375 0  0.59375 0.375 0  0.625 0.375 0  0.65625 0.375 0  0.6875 0.375 0  0.71875 0.375 0  0.75 0.375 0  0.78125 0.375 0  0.8125 0.375 0  0.84375 0.375 0  0.875 0.375 0  0.90625 0.375 0  0.9375 0.375 0  0.96875 0.375 0  1 0.375 0  0 0.40625 0  0.03125 0.40625 0  0.0625 0.40625 0  0.09375 0.40625 0  0.125 0.40625 0  0.15625 0.40625 0  0.1875 0.40625 0  0.21875 0.40625 0  0.25 0.40625 0  0.28125 0.40625 0  0.3125 0.40625 0  0.34375 0.40625 0  0.375 0.40625 0  0.40625 0.40625 0  0.4375 0.40625 0  0.46875 0.40625 0  0.5 0.40625 0  0.53125 0.40625 0  0.5625 0.40625 0  0.59375 0.40625 0  0.625 0.40625 0  0.65625 0.40625 0  0.6875 0.40625 0  0.71875 0.40625 0  0.75 0.40625 0  0.78125 0.40625 0  0.8125 0.40625 0  0.84375 0.40625 0  0.875 0.40625 0  0.90625 0.40625 0  0.9375 0.40625 0  0.96875 0.40625 0  1 0.40625 0  0 0.4375 0  0.03125 0.4375 0  0.0625 0.4375 0  0.09375 0.4375 0  0.125 0.4375 0  0.15625 0.4375 0  0.1875 0.4375 0  0.21875 0.4375 0  0.25 0.4375 0  0.28125 0.4375 0  0.3125 0.4375 0  0.34375 0.4375 0  0.375 0.4375 0  0.40625 0.4375 0  0.4375 0.4375 0  0.46875 0.4375 0  0.5 0.4375 0  0.53125 0.4375 0  0.5625 0.4375 0  0.59375 0.4375 0  0.625 0.4375 0  0.65625 0.4375 0  0.6875 0.4375 0  0.71875 0.4375 0  0.75 0.4375 0  0.78125 0.4375 0  0.8125 0.4375 0  0.84375 0.4375 0  0.875 0.4375 0  0.90625 0.4375 0  0.9375 0.4375 0  0.96875 0.4375 0  1 0.4375 0  0 0.46875 0  0.03125 0.46875 0  0.0625 0.46875 0  0.09375 0.46875 0  0.125 0.46875 0  0.15625 0.46875 0  0.1875 0.46875 0  0.21875 0.46875 0  0.25 0.46875 0  0.28125 0.46875 0  0.3125 0.46875 0  0.34375 0.46875 0  0.375 0.46875 0  0.40625 0.46875 0  0.4375 0.46875 0  0.46875 0.46875 0  0.5 0.46875 0  0.53125 0.46875 0  0.5625 0.46875 0  0.59375 0.46875 0  0.625 0.46875 0  0.65625 0.46875 0  0.6875 0.46875 0  0.71875 0.46875 0  0.75 0.46875 0  0.78125 0.46875 0  0.8125 0.46875 0  0.84375 0.46875 0  0.875 0.46875 0  0.90625 0.46875 0  0.9375 0.46875 0  0.96875 0.46875 0  1 0.46875 0  0 0.5 0  0.03125 0.5 0  0.0625 0.5 0  0.09375 0.5 0  0.125 0.5 0  0.15625 0.5 0  0.1875 0.5 0  0.21875 0.5 0  0.25 0.5 0  0.28125 0.5 0  0.3125 0.5 0  0.34375 0.5 0  0.375 0.5 0  0.40625 0.5 0  0.4375 0.5 0  0.46875 0.5 0  0.5 0.5 0  0.53125 0.5 0  0.5625 0.5 0  0.59375 0.5 0  0.625 0.5 0  0.65625 0.5 0  0.6875 0.5 0  0.71875 0.5 0  0.75 0.5 0  0.78125 0.5 0  0.8125 0.5 0  0.84375 0.5 0  0.875 0.5 0  0.90625 0.5 0  0.9375 0.5 0  0.96875 0.5 0  1 0.5 0  0 0.53125 0  0.03125 0.53125 0  0.0625 0.53125 0  0.09375 0.53125 0  0.125 0.53125 0  0.15625 0.53125 0  0.1875 0.53125 0  0.21875 0.53125 0  0.25 0.53125 0  0.28125 0.53125 0  0.3125 0.53125 0  0.34375 0.53125 0  0.375 0.53125 0  0.40625 0.53125 0  0.4375 0.53125 0  0.46875 0.53125 0  0.5 0.53125 0  0.53125 0.53125 0  0.5625 0.53125 0  0.59375 0.53125 0  0.625 0.53125 0  0.65625 0.53125 0  0.6875 0.53125 0  0.71875 0.53125 0  0.75 0.53125 0  0.78125 0.531
[...]
<CellData  Scalars="f_155160"> 
<DataArray  type="Float64"  Name="f_155160"  format="ascii">2.2732175087935905e-44   2.2732175087935905e-44   2.9894367238929454e-44   2.9894367238929454e-44   2.9894367238929454e-44   2.9894367238929454e-44   4.9823945398215720e-44   4.9823945398215720e-44   1.5569982936942429e-44   1.5569982936942429e-44   2.9894367238929454e-44   2.9894367238929454e-44   9.9025091478953726e-44   9.9025091478953726e-44   5.4962039767406673e-44   5.4962039767406673e-44   6.3525530382725014e-44   6.3525530382725014e-44   8.9994501375527189e-44   8.9994501375527189e-44   4.1309110979575378e-44   4.1309110979575378e-44   9.8139548699415149e-44   9.8139548699415149e-44   1.3701584984509334e-44   1.3701584984509334e-44   4.5464350175871880e-44   4.5464350175871880e-44   6.9753523557501996e-44   6.9753523557501996e-44   5.2937941985604212e-44   5.2937941985604212e-44   3.5499561096228697e-44   3.5499561096228697e-44   6.9753523557502036e-44   6.9753523557502036e-44   5.5429139255514969e-44   5.5429139255514969e-44   1.5569982936942429e-44   1.5569982936942429e-44   3.5499561096228697e-44   3.5499561096228697e-44   1.2455986349553943e-44   1.2455986349553943e-44   0.0000000000000000e+00   0.0000000000000000e+00   3.1139965873884856e-45   3.1139965873884856e-45   2.8025969286496371e-44   2.8025969286496371e-44   0.0000000000000000e+00   0.0000000000000000e+00   1.2455986349553943e-44   1.2455986349553943e-44   2.8025969286496326e-44   2.8025969286496326e-44   4.9823945398215678e-45   4.9823945398215678e-45   1.1210387714598539e-44   1.1210387714598539e-44   3.8924957342356072e-45   3.8924957342356072e-45   8.8748902740571756e-45   8.8748902740571756e-45   4.9823945398215678e-45   4.9823945398215678e-45   2.3043574746674757e-44   2.3043574746674757e-44   2.0552377476763995e-44   2.0552377476763995e-44   1.6192782254420108e-44   1.6192782254420108e-44   4.4218751540916482e-44   4.4218751540916482e-44   1.8012409972214305e-44   1.8012409972214305e-44   6.7262326287591269e-44   6.7262326287591269e-44   3.5674723404269275e-44   3.5674723404269275e-44   4.1688629313663323e-44   4.1688629313663323e-44   3.5044625657289940e-44   3.5044625657289940e-44   2.8417651669753775e-44   2.8417651669753775e-44   3.5382786224201661e-44   3.5382786224201661e-44   7.0882347320430363e-44   7.0882347320430363e-44   5.2354067625468904e-44   5.2354067625468904e-44   1.0976837970544412e-43   1.0976837970544412e-43   3.8584363965610398e-44   3.8584363965610398e-44   2.7286395096991576e-44   2.7286395096991576e-44   4.7215973256277902e-44   4.7215973256277902e-44   1.8372579865592038e-44   1.8372579865592038e-44   1.7438380889375499e-44   1.7438380889375499e-44   4.3912217501845403e-44   4.3912217501845403e-44   5.7180762335920990e-44   5.7180762335920990e-44   5.1108468990513506e-44   5.1108468990513506e-44   1.3701584984509334e-44   1.3701584984509334e-44   2.7558869798388086e-44   2.7558869798388086e-44   1.1210387714598539e-44   1.1210387714598539e-44   3.1139965873884856e-45   3.1139965873884856e-45   9.3419897621654563e-45   9.3419897621654563e-45   8.0963911272100528e-45   8.0963911272100528e-45   7.7849914684712141e-46   7.7849914684712141e-46   1.5258583278203577e-44   1.5258583278203577e-44   5.7608936866686894e-45   5.7608936866686894e-45   4.9823945398215678e-45   4.9823945398215678e-45   2.3666374064152482e-44   2.3666374064152482e-44   2.5690471845955008e-44   2.5690471845955008e-44   3.7367959048661785e-44   3.7367959048661785e-44   2.4522723125684299e-44   2.4522723125684299e-44   2.6313271163432682e-44   2.6313271163432682e-44   3.7990758366139494e-44   3.7990758366139494e-44   3.3027826304989101e-43   3.3027826304989101e-43   1.8236342514893796e-43   1.8236342514893796e-43   2.0961089528858719e-43   2.0961089528858719e-43   1.6178002934679199e-43   1.6178002934679199e-43   1.9559791064533918e-43   1.9559791064533918e-43   1.2222436605499800e-43   1.2222436605499800e-43   3.9859156318572542e-44   3.9859156318572542e-44   8.7191904446877555e-44   8.7191904446877555e-44   9.5288295574087640e-44   9.5288295574087640e-44   7.7227115367234367e-44   7.7227115367234367e-44   1.8061180206853193e-43   1.8061180206853193e-43   1.6192782254420107e-43   1.6192782254420107e-43   1.4947183619464714e-43   1.4947183619464714e-43   2.8025969286496371e-44   2.8025969286496371e-44   1.7998900275105438e-43   1.7998900275105438e-43   5.2937941985604212e-44   5.2937941985604212e-44   2.3860998850864267e-44   2.3860998850864267e-44   6.1696057387634288e-44   6.1696057387634288e-44   5.3716441132451334e-44   5.3716441132451334e-44   6.2279931747769713e-45   6.2279931747769713e-45   2.9271567921451730e-44   2.9271567921451730e-44   1.5569982936942429e-44   1.5569982936942429e-44   1.4480084131356454e-44   1.4480084131356454e-44   1.5569982936942428e-45   1.5569982936942428e-45   2.0240977818025132e-45   2.0240977818025132e-45   3.1139965873884856e-45   3.1139965873884856e-45   4.3595952223438773e-45   4.3595952223438773e-45   3.4253962461273284e-44   3.4253962461273284e-44   3.4925417975428952e-44   3.4925417975428952e-44   8.7690630462826533e-44   8.7690630462826533e-44   1.0295651217053175e-43   1.0295651217053175e-43   2.6219851265811014e-43   2.6219851265811014e-43   1.1954827523771108e-43   1.1954827523771108e-43   2.0304230873706453e-43   2.0304230873706453e-43   2.3152564627233375e-43   2.3152564627233375e-43   3.3494925793097379e-43   3.3494925793097379e-43   1.6076007382393037e-44   1.6076007382393037e-44   7.2524980520277721e-43   7.2524980520277721e-43   9.5054745830033430e-43   9.5054745830033430e-43   2.6655810788045438e-43   2.6655810788045438e-43   2.8212809081739640e-43   2.8212809081739640e-43   1.6566461844906727e-43   1.6566461844906727e-43   3.2198724713596935e-43   3.2198724713596935e-43   1.6192782254420127e-43   1.6192782254420127e-43   7.4735918097323660e-44   7.4735918097323660e-44   1.0712148260616387e-43   1.0712148260616387e-43   2.6157571334063259e-43   2.6157571334063259e-43   1.0587588397120846e-43   1.0587588397120846e-43   1.3717154967446268e-43   1.3717154967446268e-43   3.7669216010786601e-44   3.7669216010786601e-44   1.7749780548114349e-44   1.7749780548114349e-44   3.2541264338209655e-44   3.2541264338209655e-44   3.6122360413706422e-44   3.6122360413706422e-44   2.8804468433343489e-44   2.8804468433343489e-44   2.1369801580953443e-44   2.1369801580953443e-44   2.0240977818025132e-45   2.0240977818025132e-45   8.8748902740571756e-45   8.8748902740571756e-45   5.7608936866686894e-45   5.7608936866686894e-45   3.3164063655687369e-44   3.3164063655687369e-44   5.1575568478621742e-44   5.1575568478621742e-44   3.6978709475238239e-44   3.6978709475238239e-44   9.0695150607689518e-44   9.0695150607689518e-44   3.3791971873816212e-43   3.3791971873816212e-43   1.4522232561728726e-43   1.4522232561728726e-43   3.3692591592101529e-43   3.3692591592101529e-43   6.8407525901713966e-43   6.8407525901713966e-43   3.4226714991133645e-43   3.4226714991133645e-43   5.0088635108143789e-43   5.0088635108143789e-43   4.3876211916303753e-43   4.3876211916303753e-43   1.0252833763976582e-42   1.0252833763976582e-42   9.5226015642339773e-43   9.5226015642339773e-43   4.0668795431293605e-43   4.0668795431293605e-43   1.0986179960306566e-42   1.0986179960306566e-42   5.9851014409606668e-43   5.9851014409606668e-43   6.3587810314472841e-43   6.3587810314472841e-43   2.0054138022781839e-43   2.0054138022781839e-43   7.6853435776747715e-43   7.6853435776747715e-43   8.5946305811922197e-44   8.5946305811922197e-44   9.2797098304176804e-44   9.2797098304176804e-44   1.4448944165482571e-43   1.4448944165482571e-43   2.2358495497449310e-43   2.2358495497449310e-43   2.2900525528441604e-43   2.2900525528441604e-43   4.7147854580928794e-44   4.7147854580928794e-44   2.3666374064152482e-44   2.3666374064152482e-44   4.8656196677945088e-45   4.8656196677945088e-45   2.3705299021494804e-44   2.3705299021494804e-44   5.4981502246077949e-45   5.4981502246077949e-45   1.5496998641925487e-45   1.5496998641925487e-45   2.2187225685142939e-45   2.2187225685142939e-45   2.0240977818025132e-45   2.0240977818025132e-45   2.2265075599827667e-44   2.2265075599827667e-44   9.4113248424315221e-44   9.4113248424315221e-44   1.1154509113726206e-43   1.1154509113726206e-43   2.5159267818723532e-43   2.5159267818723532e-43   2.1433054636634804e-43   2.1433054636634804e-43   4.0752301628842123e-43   4.0752301628842123e-43   5.1370239328640795e-43   5.1370239328640795e-43   1.2032482813669102e-42   1.2032482813669102e-42   1.0540878448310011e-42   1.0540878448310011e-42   2.5425782136026984e-43   2.5425782136026984e-43   6.7153336407032615e-43   6.7153336407032615e-43   3.1217815788569571e-43   3.1217815788569571e-43   6.5580768130401471e-43   6.5580768130401471e-43   7.5545557210044659e-43   7.5545557210044659e-43   3.6869719594679660e-43   3.6869719594679660e-43   3.3631163143795582e-43   3.3631163143795582e-43   4.2163513793240087e-43   4.2163513793240087e-43   1.9742738364042994e-43   1.9742738364042994e-43   5.1380943691909946e-43   5.1380943691909946e-43   5.7359817139695875e-43   5.7359817139695875e-43   7.2867520144890518e-44   7.2867520144890518e-44   1.2269146554310629e-43   1.2269146554310629e-43   1.0836708124111914e-43   1.0836708124111914e-43   1.2039489305990715e-43   1.2039489305990715e-43   1.0268114850745745e-43   1.0268114850745745e-43   4.6904573597539025e-44   4.6904573597539025e-44   5.7984349834180201e-44   5.7984349834180201e-44   1.0169145105690509e-45   1.0169145105690509e-45   5.6071401051663916e-44   5.6071401051663916e-44   1.5893850746079995e-45   1.5893850746079995e-45   7.2254452066748427e-46   7.2254452066748427e-46   5.9204403965879722e-44   5.9204403965879722e-44   1.5076122540661260e-44   1.5076122540661260e-44   2.3724761500166022e-44   2.3724761500166022e-44   5.6994196231784021e-44   5.6994196231784021e-44   2.8599139283362541e-43   2.8599139283362541e-43   3.4316242393021083e-43   3.4316242393021083e-43   7.4175398711593703e-43   7.4175398711593703e-43   9.7592653048755135e-43   9.7592653048755135e-43   8.9698671699725215e-43   8.9698671699725215e-43   7.2883090127827442e-43   7.2883090127827442e-43   9.4167256802627739e-43   9.4167256802627739e-43   9.3746867263330246e-43   9.3746867263330246e-43   1.0226364792983778e-42   1.0226364792983778e-42   6.9317564035267652e-43   6.9317564035267652e-43   7.4299958575089262e-43   7.4299958575089262e-43   9.1676059532716866e-43   9.1676059532716866e-43   5.2439702531622084e-43   5.2439702531622084e-43   7.6728875913252204e-43   7.6728875913252204e-43   4.6834508674322816e-43   4.6834508674322816e-43   1.0276188738381996e-42   1.0276188738381996e-42   5.7608936866686920e-43   5.7608936866686920e-43   2.8648768603974028e-43   2.8648768603974028e-43   8.0496811783992237e-44   8.0496811783992237e-44   1.0420211080548712e-43   1.0420211080548712e-43   2.0787873468685258e-43   2.0787873468685258e-43   2.2080961311851375e-43   2.2080961311851375e-43   5.4782011839698347e-44   5.4782011839698347e-44   6.0044787712876552e-44   6.0044787712876552e-44   1.9462478671178035e-46   1.9462478671178035e-46   5.2626542326865404e-44   5.2626542326865404e-44   3.7757208622085364e-45   3.7757208622085364e-45   4.2038953929744549e-45   4.2038953929744549e-45   2.7742622539254694e-45   2.7742622539254694e-45   1.5764607723654209e-44   1.5764607723654209e-44   1.2300286520184499e-44   1.2300286520184499e-44   2.8942093245900108e-43   2.8942093245900108e-43   3.5032461608120407e-44   3.5032461608120407e-44   1.8139030121537928e-43   1.8139030121537928e-43   8.3221558797957179e-43   8.3221558797957179e-43   8.2598759480479481e-43   8.2598759480479481e-43   1.4928499639940387e-42   1.4928499639940387e-42   3.2463414423524904e-43   3.2463414423524904e-43   5.0882704237927846e-43   5.0882704237927846e-43   5.1380943691909922e-43   5.1380943691909922e-43   1.1608979277784261e-42   1.1608979277784261e-42   4.1104754953527933e-43   4.1104754953527933e-43   2.1984815906962677e-43   2.1984815906962677e-43   5.9415054887372236e-43   5.9415054887372236e-43   5.5927378709497188e-43   5.5927378709497188e-43   4.4966110721889649e-43   4.4966110721889649e-43   9.7109983577709887e-43   9.7109983577709887e-43   8.4467157432912576e-43   8.4467157432912576e-43   7.3319049650061811e-43   7.3319049650061811e-43   3.4020412717219165e-43   3.4020412717219165e-43   2.5352797841010030e-43   2.5352797841010030e-43   1.6164151123687439e-43   1.6164151123687439e-43   1.5610367580185103e-43   1.5610367580185103e-43   1.9789691593837213e-43   1.9789691593837213e-43   3.7027365671916173e-44   3.7027365671916173e-44   2.7714569627757484e-44   2.7714569627757484e-44   9.0305901034266066e-45   9.0305901034266066e-45   5.7297537207948121e-44   5.7297537207948121e-44   3.1139965873884856e-45   3.1139965873884856e-45   8.8748902740571756e-45   8.8748902740571756e-45   6.5393928335158109e-45   6.5393928335158109e-45   1.1366087543967970e-44   1.1366087543967970e-44   1.7746678715576123e-43   1.7746678715576123e-43   1.4713633875410595e-43   1.4713633875410595e-43   5.8076036354795174e-44   5.8076036354795174e-44   4.4841550858394122e-43   4.4841550858394122e-43   7.1871041236926129e-43   7.1871041236926129e-43   6.9566683762258682e-43   6.9566683762258682e-43   8.0278832022875095e-43   8.0278832022875095e-43   9.2734818372429028e-43   9.2734818372429028e-43   5.3872140961820739e-43   5.3872140961820739e-43   8.6444545265904290e-43   8.6444545265904290e-43   3.5001321642246569e-43   3.5001321642246569e-43   7.2057881032169555e-43   7.2057881032169555e-43   1.4504996104055544e-42   1.4504996104055544e-42   5.9601894682615558e-43   5.9601894682615558e-43   1.1492204405757194e-42   1.1492204405757194e-42   6.1594852498544140e-43   6.1594852498544140e-43   6.5347218386347356e-43   6.5347218386347356e-43   2.1241349221723703e-43   2.1241349221723703e-43   4.3724404582668551e-43   4.3724404582668551e-43   4.3309123944022240e-43   4.3309123944022240e-43   1.6294960267443800e-43   1.6294960267443800e-43   4.0058646724952147e-43   4.0058646724952147e-43   8.9838801546157701e-44   8.9838801546157701e-44   2.5737181794765802e-43   2.5737181794765802e-43   5.2315142668126517e-44   5.2315142668126517e-44   4.1260454782897389e-44   4.1260454782897389e-44   5.7920336525425825e-44   5.7920336525425825e-44   8.7814703764355140e-44   8.7814703764355140e-44   1.3452465257518242e-43   1.3452465257518242e-43   5.6051938572992743e-44   5.6051938572992743e-44   3.1139965873884856e-45   3.1139965873884856e-45   1.6504181913158956e-43   1.6504181913158956e-43   1.3356125988095903e-43   1.3356125988095903e-43   1.5819102663933494e-43   1.5819102663933494e-43   1.9742738364042994e-43   1.9742738364042994e-43   5.6363338231731524e-43   5.6363338231731524e-43   8.0465671818118394e-43   8.0465671818118394e-43   2.9707527443686150e-43   2.9707527443686150e-43   7.2992080008386094e-43   7.2992080008386094e-43   8.6818224856390919e-43   8.6818224856390919e-43   9.0305901034266023e-43   9.0305901034266023e-43   7.0002643284493098e-43   7.0002643284493098e-43   9.7468093185259513e-43   9.7468093185259513e-43   5.4308100484055147e-43   5.4308100484055147e-43   9.6160214618556377e-43   9.6160214618556377e-43   5.7499946986128380e-43   5.7499946986128380e-43   7.4735918097323635e-45   7.4735918097323635e-45   7.2524980520277817e-43   7.2524980520277817e-43   7.7635827419329124e-43   7.7635827419329124e-43   6.7391751770754550e-43   6.7391751770754550e-43   6.9763558898066804e-43   6.9763558898066804e-43   3.1947172176771936e-43   3.1947172176771936e-43   2.0120310450263841e-43   2.0120310450263841e-43   5.2470842497495916e-44   5.2470842497495916e-44   7.4502368353269467e-44   7.4502368353269467e-44   2.5861741658261336e-43   2.5861741658261336e-43   4.4374451370285876e-44   4.4374451370285876e-44   2.6157571334063244e-44   2.6157571334063244e-44   8.7814703764355140e-44   8.7814703764355140e-44   8.0963911272100528e-45   8.0963911272100528e-45   8.4700707176966649e-44   8.4700707176966649e-44   1.0276188738382001e-43   1.0276188738382001e-43   3.1139965873884856e-45   3.1139965873884856e-45   6.7885125605068914e-44   6.7885125605068914e-44   6.6172427482005309e-44   6.6172427482005309e-44   1.9446908688241064e-43   1.9446908688241064e-43   7.0376322874979760e-44   7.0376322874979760e-44   1.5445423073446873e-43   1.5445423073446873e-43   8.7316464310373090e-43   8.7316464310373090e-43   4.1914394066248985e-43   4.1914394066248985e-43   1.3514745189266014e-42   1.3514745189266014e-42   7.7538515025973264e-43   7.7538515025973264e-43   6.7075486492347977e-43   6.7075486492347977e-43   3.1638205327867012e-43   3.1638205327867012e-43   3.4689921983507724e-43   3.4689921983507724e-43   2.9707527443686150e-43   2.9707527443686150e-43   6.9068444308276551e-43   6.9068444308276551e-43   5.0944984169675610e-43   5.0944984169675610e-43   1.1412797492778790e-42   1.1412797492778790e-42   1.5850242629807388e-43   1.5850242629807388e-43   6.1100505540296315e-43   6.1100505540296315e-43   3.9718053348206558e-43   3.9718053348206558e-43   3.2692341828894677e-43   3.2692341828894677e-43   4.0875097705208085e-43   4.0875097705208085e-43   7.2556120486151680e-44   7.2556120486151680e-44   3.3915877919668910e-43   3.3915877919668910e-43   5.9360559947092960e-44   5.9360559947092960e-44   3.1139965873884858e-44   3.1139965873884858e-44   2.8025969286496371e-44   2.8025969286496371e-44   2.0552377476763995e-44   2.0552377476763995e-44   6.2279931747769715e-44   6.2279931747769715e-44   3.1139965873884856e-45   3.1139965873884856e-45   0.0000000000000000e+00   0.0000000000000000e+00   1.6192782254420107e-43   1.6192782254420107e-43   0.0000000000000000e+00   0.0000000000000000e+00   6.4771129017680422e-44   6.4771129017680422e-44   8.6569105129399781e-44   8.6569105129399781e-44   2.2669895156188167e-43   2.2669895156188167e-43   3.2883803962822393e-43   3.2883803962822393e-43   5.7048417480957026e-43   5.7048417480957026e-43   7.5981516732278979e-43   7.5981516732278979e-43   2.1486576452980550e-43   2.1486576452980550e-43   2.2420775429197073e-43   2.2420775429197073e-43   7.1497361646439628e-43   7.1497361646439628e-43   4.7955547445782598e-44   4.7955547445782598e-44   7.0999122192457401e-43   7.0999122192457401e-43   1.0942584008083123e-42   1.0942584008083123e-42   4.8142387241025984e-43   4.8142387241025984e-43   1.5060844494904396e-42   1.5060844494904396e-42   4.3860641933366814e-43   4.3860641933366814e-43   4.6040439544538758e-43   4.6040439544538758e-43   8.1341483358321372e-43   8.1341483358321372e-43   4.8286409583192668e-43   4.8286409583192668e-43   3.2433247581584622e-43   3.2433247581584622e-43   4.5041041264773701e-43   4.5041041264773701e-43   1.6457471964348133e-43   1.6457471964348133e-43   1.4791483790095290e-43   1.4791483790095290e-43   1.1210387714598535e-43   1.1210387714598535e-43   2.6422261043991263e-43   2.6422261043991263e-43   6.6639526970113555e-44   6.6639526970113555e-44   9.7156693526520604e-44   9.7156693526520604e-44   3.2385564508840211e-44   3.2385564508840211e-44   7.9718312637145085e-44   7.9718312637145085e-44   0.0000000000000000e+00   0.0000000000000000e+00   2.4911972699107885e-44   2.4911972699107885e-44   1.0463028533625297e-43   1.0463028533625297e-43   1.2954225803536084e-43   1.2954225803536084e-43   3.9859156318572542e-44   3.9859156318572542e-44   1.9696028415232137e-43   1.9696028415232137e-43   1.3701584984509320e-43   1.3701584984509320e-43   1.2455986349553943e-43   1.2455986349553943e-43   2.2171655702205987e-43   2.2171655702205987e-43   5.1816903214144394e-43   5.1816903214144394e-43   5.8044896388921320e-43   5.8044896388921320e-43   9.4914615983600916e-43   9.4914615983600916e-43   1.4355524267860902e-42   1.4355524267860902e-42   8.2770029292785872e-43   8.2770029292785872e-43   6.3525530382725086e-43   6.3525530382725086e-43   2.6904930515036508e-43   2.6904930515036508e-43   3.6122360413706427e-44   3.6122360413706427e-44   8.831294