<?xml version="1.0"?>
<VTKFile type="UnstructuredGrid"  version="0.1"  >
<UnstructuredGrid>
<Piece  NumberOfPoints="25" NumberOfCells="32">
<Points>
<DataArray  type="Float64"  NumberOfComponents="3"  format="ascii">0 0 0  0.25 0 0  0.5 0 0  0.75 0 0  1 0 0  0 0.25 0  0.25 0.25 0  0.5 0.25 0  0.75 0.25 0  1 0.25 0  0 0.5 0  0.25 0.5 0  0.5 0.5 0  0.75 0.5 0  1 0.5 0  0 0.75 0  0.25 0.75 0  0.5 0.75 0  0.75 0.75 0  1 0.75 0  0 1 0  0.25 1 0  0.5 1 0  0.75 1 0  1 1 0  </DataArray>
</Points>
<Cells>
<DataArray  type="UInt32"  Name="connectivity"  format="ascii">0 1 6  0 5 6  1 2 7  1 6 7  2 3 8  2 7 8  3 4 9  3 8 9  5 6 11  5 10 11  6 7 12  6 11 12  7 8 13  7 12 13  8 9 14  8 13 14  10 11 16  10 15 16  11 12 17  11 16 17  12 13 18  12 17 18  13 14 19  13 18 19  15 16 21  15 20 21  16 17 22  16 21 22  17 18 23  17 22 23  18 19 24  18 23 24  </DataArray>
<DataArray  type="UInt32"  Name="offsets"  format="ascii">3 6 9 12 15 18 21 24 27 30 33 36 39 42 45 48 51 54 57 60 63 66 69 72 75 78 81 84 87 90 93 96 </DataArray>
<DataArray  type="UInt8"  Name="types"  format="ascii">5 5 5 5 5 5 5 5 5 5 5 5 5 5 5 5 5 5 5 5 5 5 5 5 5 5 5 5 5 5 5 5 </DataArray>
</Cells>
<CellData  Scalars="f_34761"> 
<DataArray  type="Float64"  Name="f_34761"  format="ascii">4.8450838958641893e-07   1.6443659198673336e-06   4.7834292286412850e-07   1.5641058856165577e-07   2.3419303715310302e-07   4.9913601784934303e-07   5.5034091265659222e-06   1.1144760858516229e-06   3.8812396214847083e-07   5.2648339970137799e-07   1.3083572710716837e-07   1.1992136018055350e-07   9.6332802131731070e-08   2.0879270642310243e-08   6.9145824186656563e-07   2.2351235905098980e-07   7.1462585357310057e-07   3.0598112442263878e-07   3.3714678443248243e-08   1.1195085732131162e-07   1.0702440748477658e-07   1.1807467955504910e-07   2.8295819849493794e-07   4.1244871853787336e-07   6.4698170618136376e-07   3.1630813713648189e-06   1.5542536707857703e-07   2.2218846514321569e-07   2.1657638105411490e-07   4.6302435766847835e-08   2.6166390466898519e-07   1.8648920709234296e-07   </DataArray> 
</CellData> 
</Piece>
</UnstructuredGrid>
</VTKFile>