<?xml version="1.0"?>
<VTKFile type="UnstructuredGrid"  version="0.1"  >
<UnstructuredGrid>
<Piece  NumberOfPoints="81" NumberOfCells="128">
<Points>
<DataArray  type="Float64"  NumberOfComponents="3"  format="ascii">0 0 0  0.125 0 0  0.25 0 0  0.375 0 0  0.5 0 0  0.625 0 0  0.75 0 0  0.875 0 0  1 0 0  0 0.125 0  0.125 0.125 0  0.25 0.125 0  0.375 0.125 0  0.5 0.125 0  0.625 0.125 0  0.75 0.125 0  0.875 0.125 0  1 0.125 0  0 0.25 0  0.125 0.25 0  0.25 0.25 0  0.375 0.25 0  0.5 0.25 0  0.625 0.25 0  0.75 0.25 0  0.875 0.25 0  1 0.25 0  0 0.375 0  0.125 0.375 0  0.25 0.375 0  0.375 0.375 0  0.5 0.375 0  0.625 0.375 0  0.75 0.375 0  0.875 0.375 0  1 0.375 0  0 0.5 0  0.125 0.5 0  0.25 0.5 0  0.375 0.5 0  0.5 0.5 0  0.625 0.5 0  0.75 0.5 0  0.875 0.5 0  1 0.5 0  0 0.625 0  0.125 0.625 0  0.25 0.625 0  0.375 0.625 0  0.5 0.625 0  0.625 0.625 0  0.75 0.625 0  0.875 0.625 0  1 0.625 0  0 0.75 0  0.125 0.75 0  0.25 0.75 0  0.375 0.75 0  0.5 0.75 0  0.625 0.75 0  0.75 0.75 0  0.875 0.75 0  1 0.75 0  0 0.875 0  0.125 0.875 0  0.25 0.875 0  0.375 0.875 0  0.5 0.875 0  0.625 0.875 0  0.75 0.875 0  0.875 0.875 0  1 0.875 0  0 1 0  0.125 1 0  0.25 1 0  0.375 1 0  0.5 1 0  0.625 1 0  0.75 1 0  0.875 1 0  1 1 0  </DataArray>
</Points>
<Cells>
<DataArray  type="UInt32"  Name="connectivity"  format="ascii">0 1 10  0 9 10  1 2 11  1 10 11  2 3 12  2 11 12  3 4 13  3 12 13  4 5 14  4 13 14  5 6 15  5 14 15  6 7 16  6 15 16  7 8 17  7 16 17  9 10 19  9 18 19  10 11 20  10 19 20  11 12 21  11 20 21  12 13 22  12 21 22  13 14 23  13 22 23  14 15 24  14 23 24  15 16 25  15 24 25  16 17 26  16 25 26  18 19 28  18 27 28  19 20 29  19 28 29  20 21 30  20 29 30  21 22 31  21 30 31  22 23 32  22 31 32  23 24 33  23 32 33  24 25 34  24 33 34  25 26 35  25 34 35  27 28 37  27 36 37  28 29 38  28 37 38  29 30 39  29 38 39  30 31 40  30 39 40  31 32 41  31 40 41  32 33 42  32 41 42  33 34 43  33 42 43  34 35 44  34 43 44  36 37 46  36 45 46  37 38 47  37 46 47  38 39 48  38 47 48  39 40 49  39 48 49  40 41 50  40 49 50  41 42 51  41 50 51  42 43 52  42 51 52  43 44 53  43 52 53  45 46 55  45 54 55  46 47 56  46 55 56  47 48 57  47 56 57  48 49 58  48 57 58  49 50 59  49 58 59  50 51 60  50 59 60  51 52 61  51 60 61  52 53 62  52 61 62  54 55 64  54 63 64  55 56 65  55 64 65  56 57 66  56 65 66  57 58 67  57 66 67  58 59 68  58 67 68  59 60 69  59 68 69  60 61 70  60 69 70  61 62 71  61 70 71  63 64 73  63 72 73  64 65 74  64 73 74  65 66 75  65 74 75  66 67 76  66 75 76  67 68 77  67 76 77  68 69 78  68 77 78  69 70 79  69 78 79  70 71 80  70 79 80  </DataArray>
<DataArray  type="UInt32"  Name="offsets"  format="ascii">3 6 9 12 15 18 21 24 27 30 33 36 39 42 45 48 51 54 57 60 63 66 69 72 75 78 81 84 87 90 93 96 99 102 105 108 111 114 117 120 123 126 129 132 135 138 141 144 147 150 153 156 159 162 165 168 171 174 177 180 183 186 189 192 195 198 201 204 207 210 213 216 219 222 225 228 231 234 237 240 243 246 249 252 255 258 261 264 267 270 273 276 279 282 285 288 291 294 297 300 303 306 309 312 315 318 321 324 327 330 333 336 339 342 345 348 351 354 357 360 363 366 369 372 375 378 381 384 </DataArray>
<DataArray  type="UInt8"  Name="types"  format="ascii">5 5 5 5 5 5 5 5 5 5 5 5 5 5 5 5 5 5 5 5 5 5 5 5 5 5 5 5 5 5 5 5 5 5 5 5 5 5 5 5 5 5 5 5 5 5 5 5 5 5 5 5 5 5 5 5 5 5 5 5 5 5 5 5 5 5 5 5 5 5 5 5 5 5 5 5 5 5 5 5 5 5 5 5 5 5 5 5 5 5 5 5 5 5 5 5 5 5 5 5 5 5 5 5 5 5 5 5 5 5 5 5 5 5 5 5 5 5 5 5 5 5 5 5 5 5 5 5 </DataArray>
</Cells>
<CellData  Scalars="f_87500"> 
<DataArray  type="Float64"  Name="f_87500"  format="ascii">1.2214120989012823e-38   1.2214120989012823e-38   1.5224284474191437e-38   1.5224284474191437e-38   1.3877363863874241e-38   1.3877363863874241e-38   7.9315256848451792e-38   7.9315256848451792e-38   3.0662851772751492e-38   3.0662851772751492e-38   1.6326310428087344e-38   1.6326310428087344e-38   7.3794923134954788e-38   7.3794923134954788e-38   1.3265127222820951e-38   1.3265127222820951e-38   2.5999649356729055e-38   2.5999649356729055e-38   4.7019774032891511e-38   4.7019774032891511e-38   7.3141870717831255e-38   7.3141870717831255e-38   5.8744105709061760e-38   5.8744105709061760e-38   5.2121746041668757e-38   5.2121746041668757e-38   2.0897677347951761e-38   2.0897677347951761e-38   2.6122096684939750e-38   2.6122096684939750e-38   8.1631552140436718e-40   8.1631552140436718e-40   3.2652620856174687e-39   3.2652620856174687e-39   4.7019774032891511e-38   4.7019774032891511e-38   9.9917019819894396e-38   9.9917019819894396e-38   7.4412261748016814e-39   7.4412261748016814e-39   7.8090783566345166e-38   7.8090783566345166e-38   1.0971280607674680e-37   1.0971280607674680e-37   9.6651757734276922e-38   9.6651757734276922e-38   1.3877363863874241e-38   1.3877363863874241e-38   2.7958806608099527e-38   2.7958806608099527e-38   2.2989485871550488e-38   2.2989485871550488e-38   5.4366613725530849e-38   5.4366613725530849e-38   6.6108323993855869e-38   6.6108323993855869e-38   4.0828531000240242e-38   4.0828531000240242e-38   8.7345760790267153e-38   8.7345760790267153e-38   4.3264722634431397e-38   4.3264722634431397e-38   5.5509455455496963e-38   5.5509455455496963e-38   3.5264830524668620e-38   3.5264830524668620e-38   4.2172900624553118e-38   4.2172900624553118e-38   8.6090675676107953e-38   8.6090675676107953e-38   3.4315863731036067e-38   3.4315863731036067e-38   8.2067013423217067e-38   8.2067013423217067e-38   6.8703155070194968e-38   6.8703155070194968e-38   6.9101108886879558e-38   6.9101108886879558e-38   3.3162818057052417e-39   3.3162818057052417e-39   2.6938412206344118e-38   2.6938412206344118e-38   8.6202919060301133e-38   8.6202919060301133e-38   3.7223987776039081e-37   3.7223987776039081e-37   7.9315820542046291e-38   7.9315256848451781e-38   1.5930907597407103e-38   1.5931471291001607e-38   5.0285036118508975e-38   5.0285036118508975e-38   1.0448838673975881e-37   1.0448838673975881e-37   6.5305241712349377e-38   6.5305241712349377e-38   8.6202919060301133e-38   8.6202919060301133e-38   3.3958725690421633e-38   3.3958725690421633e-38   2.6122096684939750e-38   2.6122096684939750e-38   1.3194742447847917e-38   1.3193699614698083e-38   1.0142720353449255e-37   1.0142824636764239e-37   4.2448407113027096e-38   4.2448407113027096e-38   1.3061048342469857e-37   1.3061048342469857e-37   1.8367099231598262e-39   1.8367099231598262e-39   2.7275142358923390e-38   2.7275142358923390e-38   1.9101783200862180e-38   1.9101783200862180e-38   3.7223987776039103e-38   3.7223987776039103e-38   2.3269079138584598e-39   2.3264992360024439e-39   1.3387574551031610e-38   1.3387983228887626e-38   0.0000000000000000e+00   0.0000000000000000e+00   5.2121746041668810e-38   5.2121746041668810e-38   3.3808855262663804e-38   3.3808855262663804e-38   </DataArray> 
</CellData> 
</Piece>
</UnstructuredGrid>
</VTKFile>