<?xml version="1.0"?>
<VTKFile type="UnstructuredGrid"  version="0.1"  >
<UnstructuredGrid>
<Piece  NumberOfPoints="25" NumberOfCells="32">
<Points>
<DataArray  type="Float64"  NumberOfComponents="3"  format="ascii">0 0 0  0.25 0 0  0.5 0 0  0.75 0 0  1 0 0  0 0.25 0  0.25 0.25 0  0.5 0.25 0  0.75 0.25 0  1 0.25 0  0 0.5 0  0.25 0.5 0  0.5 0.5 0  0.75 0.5 0  1 0.5 0  0 0.75 0  0.25 0.75 0  0.5 0.75 0  0.75 0.75 0  1 0.75 0  0 1 0  0.25 1 0  0.5 1 0  0.75 1 0  1 1 0  </DataArray>
</Points>
<Cells>
<DataArray  type="UInt32"  Name="connectivity"  format="ascii">0 1 6  0 5 6  1 2 7  1 6 7  2 3 8  2 7 8  3 4 9  3 8 9  5 6 11  5 10 11  6 7 12  6 11 12  7 8 13  7 12 13  8 9 14  8 13 14  10 11 16  10 15 16  11 12 17  11 16 17  12 13 18  12 17 18  13 14 19  13 18 19  15 16 21  15 20 21  16 17 22  16 21 22  17 18 23  17 22 23  18 19 24  18 23 24  </DataArray>
<DataArray  type="UInt32"  Name="offsets"  format="ascii">3 6 9 12 15 18 21 24 27 30 33 36 39 42 45 48 51 54 57 60 63 66 69 72 75 78 81 84 87 90 93 96 </DataArray>
<DataArray  type="UInt8"  Name="types"  format="ascii">5 5 5 5 5 5 5 5 5 5 5 5 5 5 5 5 5 5 5 5 5 5 5 5 5 5 5 5 5 5 5 5 </DataArray>
</Cells>
<CellData  Scalars="f_34437"> 
<DataArray  type="Float64"  Name="f_34437"  format="ascii">7.6406905330244052e-02   1.0460827279639544e-01   1.7355974965434504e-01   1.0910948215764003e-01   1.1845016860321900e-01   1.4707415030416107e-01   1.9852302630041035e-02   1.4361069733899925e-01   1.3663316859070801e-01   1.9683442778070900e-01   3.6698118676350554e-02   5.2432109478607228e-02   6.1816475460492695e-02   1.9566605549368309e-02   1.6174195807521835e-01   1.6321616320283519e-01   1.7481942656976093e-01   9.6613290034613802e-02   5.2907904307484682e-02   8.2808692143523432e-02   6.9375415912358254e-02   8.9662648324098315e-02   1.9255002574925284e-01   1.0306119072916101e-01   1.1535033796976822e-01   4.0507553950892370e-03   1.8915266264566735e-01   1.3823957926538250e-01   1.2414160417417056e-01   2.1865768266166008e-01   5.1179513008518966e-02   8.5453014019306203e-02   </DataArray> 
</CellData> 
</Piece>
</UnstructuredGrid>
</VTKFile>