<?xml version="1.0"?>
<VTKFile type="UnstructuredGrid"  version="0.1"  >
<UnstructuredGrid>
<Piece  NumberOfPoints="81" NumberOfCells="128">
<Points>
<DataArray  type="Float64"  NumberOfComponents="3"  format="ascii">0 0 0  0.125 0 0  0.25 0 0  0.375 0 0  0.5 0 0  0.625 0 0  0.75 0 0  0.875 0 0  1 0 0  0 0.125 0  0.125 0.125 0  0.25 0.125 0  0.375 0.125 0  0.5 0.125 0  0.625 0.125 0  0.75 0.125 0  0.875 0.125 0  1 0.125 0  0 0.25 0  0.125 0.25 0  0.25 0.25 0  0.375 0.25 0  0.5 0.25 0  0.625 0.25 0  0.75 0.25 0  0.875 0.25 0  1 0.25 0  0 0.375 0  0.125 0.375 0  0.25 0.375 0  0.375 0.375 0  0.5 0.375 0  0.625 0.375 0  0.75 0.375 0  0.875 0.375 0  1 0.375 0  0 0.5 0  0.125 0.5 0  0.25 0.5 0  0.375 0.5 0  0.5 0.5 0  0.625 0.5 0  0.75 0.5 0  0.875 0.5 0  1 0.5 0  0 0.625 0  0.125 0.625 0  0.25 0.625 0  0.375 0.625 0  0.5 0.625 0  0.625 0.625 0  0.75 0.625 0  0.875 0.625 0  1 0.625 0  0 0.75 0  0.125 0.75 0  0.25 0.75 0  0.375 0.75 0  0.5 0.75 0  0.625 0.75 0  0.75 0.75 0  0.875 0.75 0  1 0.75 0  0 0.875 0  0.125 0.875 0  0.25 0.875 0  0.375 0.875 0  0.5 0.875 0  0.625 0.875 0  0.75 0.875 0  0.875 0.875 0  1 0.875 0  0 1 0  0.125 1 0  0.25 1 0  0.375 1 0  0.5 1 0  0.625 1 0  0.75 1 0  0.875 1 0  1 1 0  </DataArray>
</Points>
<Cells>
<DataArray  type="UInt32"  Name="connectivity"  format="ascii">0 1 10  0 9 10  1 2 11  1 10 11  2 3 12  2 11 12  3 4 13  3 12 13  4 5 14  4 13 14  5 6 15  5 14 15  6 7 16  6 15 16  7 8 17  7 16 17  9 10 19  9 18 19  10 11 20  10 19 20  11 12 21  11 20 21  12 13 22  12 21 22  13 14 23  13 22 23  14 15 24  14 23 24  15 16 25  15 24 25  16 17 26  16 25 26  18 19 28  18 27 28  19 20 29  19 28 29  20 21 30  20 29 30  21 22 31  21 30 31  22 23 32  22 31 32  23 24 33  23 32 33  24 25 34  24 33 34  25 26 35  25 34 35  27 28 37  27 36 37  28 29 38  28 37 38  29 30 39  29 38 39  30 31 40  30 39 40  31 32 41  31 40 41  32 33 42  32 41 42  33 34 43  33 42 43  34 35 44  34 43 44  36 37 46  36 45 46  37 38 47  37 46 47  38 39 48  38 47 48  39 40 49  39 48 49  40 41 50  40 49 50  41 42 51  41 50 51  42 43 52  42 51 52  43 44 53  43 52 53  45 46 55  45 54 55  46 47 56  46 55 56  47 48 57  47 56 57  48 49 58  48 57 58  49 50 59  49 58 59  50 51 60  50 59 60  51 52 61  51 60 61  52 53 62  52 61 62  54 55 64  54 63 64  55 56 65  55 64 65  56 57 66  56 65 66  57 58 67  57 66 67  58 59 68  58 67 68  59 60 69  59 68 69  60 61 70  60 69 70  61 62 71  61 70 71  63 64 73  63 72 73  64 65 74  64 73 74  65 66 75  65 74 75  66 67 76  66 75 76  67 68 77  67 76 77  68 69 78  68 77 78  69 70 79  69 78 79  70 71 80  70 79 80  </DataArray>
<DataArray  type="UInt32"  Name="offsets"  format="ascii">3 6 9 12 15 18 21 24 27 30 33 36 39 42 45 48 51 54 57 60 63 66 69 72 75 78 81 84 87 90 93 96 99 102 105 108 111 114 117 120 123 126 129 132 135 138 141 144 147 150 153 156 159 162 165 168 171 174 177 180 183 186 189 192 195 198 201 204 207 210 213 216 219 222 225 228 231 234 237 240 243 246 249 252 255 258 261 264 267 270 273 276 279 282 285 288 291 294 297 300 303 306 309 312 315 318 321 324 327 330 333 336 339 342 345 348 351 354 357 360 363 366 369 372 375 378 381 384 </DataArray>
<DataArray  type="UInt8"  Name="types"  format="ascii">5 5 5 5 5 5 5 5 5 5 5 5 5 5 5 5 5 5 5 5 5 5 5 5 5 5 5 5 5 5 5 5 5 5 5 5 5 5 5 5 5 5 5 5 5 5 5 5 5 5 5 5 5 5 5 5 5 5 5 5 5 5 5 5 5 5 5 5 5 5 5 5 5 5 5 5 5 5 5 5 5 5 5 5 5 5 5 5 5 5 5 5 5 5 5 5 5 5 5 5 5 5 5 5 5 5 5 5 5 5 5 5 5 5 5 5 5 5 5 5 5 5 5 5 5 5 5 5 </DataArray>
</Cells>
<CellData  Scalars="f_37608"> 
<DataArray  type="Float64"  Name="f_37608"  format="ascii">1.2807558815840201e-04   1.9816667052256266e-04   3.8864884221294409e-04   2.9614248801799022e-04   6.7722451554412479e-04   5.0816653637332444e-04   8.2480345349213678e-04   7.1095725346828132e-04   7.4492077132193963e-04   7.8575018117440533e-04   4.8432535229196266e-04   6.8874336248088224e-04   1.9568232815129317e-04   4.7673486956111705e-04   4.6965201383738748e-05   2.7436212991885264e-04   3.4254342698049838e-04   5.2884760811920662e-04   4.2558507182849907e-04   4.8078711006957101e-04   5.0815696858959921e-04   4.4055867745110917e-04   5.4072213678513182e-04   4.3064452956371519e-04   5.0411492608501841e-04   4.5690031998737616e-04   4.1980220596227321e-04   5.0395450385770906e-04   3.3747675549745872e-04   5.4418205325398948e-04   3.0477765163621878e-04   5.5556992927748114e-04   6.4093149192543655e-04   8.1049674088646065e-04   5.0402820807412163e-04   6.3398343707609013e-04   3.2690369351624093e-04   3.6619681172016125e-04   2.1134408679197194e-04   1.6149296845901150e-04   2.2506989494702005e-04   1.3969004333955629e-04   3.6010981643459978e-04   3.1354143998041389e-04   5.3763341337604274e-04   5.8121256231792346e-04   6.5428334248131086e-04   7.8824847022121154e-04   8.4863482269766294e-04   8.7824060038299144e-04   5.7675665554665937e-04   6.6482235775387711e-04   2.3709917756973059e-04   3.2679216013319469e-04   2.6230336259222016e-05   5.8960696691558019e-05   6.7750112409514795e-05   1.7960216173078808e-05   3.3738289523106268e-04   2.2779211869528699e-04   6.7737916865283918e-04   5.6559733500552759e-04   8.9086442707544304e-04   8.3587282354339416e-04   8.4393526947210509e-04   6.9237336001531740e-04   6.0128412370065356e-04   5.5516530608637482e-04   2.9137003244139402e-04   3.4542747589258856e-04   9.3610675675992295e-05   1.8317507863216466e-04   1.2392271380186749e-04   1.6310959331836301e-04   3.6456050012228201e-04   2.9698495019507402e-04   6.7470132782006991e-04   5.0644565096792096e-04   8.7573600013571078e-04   6.7053150925411678e-04   6.2960429995063104e-04   3.6172992455189103e-04   5.6324920291046506e-04   3.6929716143616905e-04   4.5792334514119020e-04   4.1125523951255261e-04   3.7400521275269259e-04   4.6140723158700711e-04   3.6067521939329788e-04   4.9011824259197114e-04   4.2573827627164846e-04   4.8058003141081241e-04   5.3117568415676287e-04   4.3840371889241394e-04   6.1770729960435391e-04   3.8907781600778949e-04   3.3117500095691978e-04   8.0027661220707593e-05   4.8489287910299223e-04   2.1629239814596106e-04   6.3923835493738903e-04   4.8582634763649329e-04   7.0325021264068185e-04   7.3080071673912843e-04   6.3939685284899539e-04   8.0760173490050831e-04   4.8509765649389341e-04   6.7122231810707851e-04   3.3082583896820896e-04   4.0149226182904308e-04   2.6792608305654247e-04   1.5636757028689348e-04   1.2381664745607932e-04   1.2255746011284469e-05   4.1366603152732283e-04   1.8513122429290974e-04   7.3148417942334339e-04   5.2570506754666077e-04   8.9098405917829436e-04   8.3533166258912184e-04   7.9872610128875563e-04   9.3256086658841911e-04   5.0874689699109308e-04   7.6041515731928018e-04   1.9087372243331764e-04   4.1973264958526234e-04   3.1400608976735187e-05   1.1008822187109942e-04   </DataArray> 
</CellData> 
</Piece>
</UnstructuredGrid>
</VTKFile>