<?xml version="1.0"?>
<VTKFile type="UnstructuredGrid"  version="0.1"  >
<UnstructuredGrid>
<Piece  NumberOfPoints="25" NumberOfCells="32">
<Points>
<DataArray  type="Float64"  NumberOfComponents="3"  format="ascii">0 0 0  0.25 0 0  0.5 0 0  0.75 0 0  1 0 0  0 0.25 0  0.25 0.25 0  0.5 0.25 0  0.75 0.25 0  1 0.25 0  0 0.5 0  0.25 0.5 0  0.5 0.5 0  0.75 0.5 0  1 0.5 0  0 0.75 0  0.25 0.75 0  0.5 0.75 0  0.75 0.75 0  1 0.75 0  0 1 0  0.25 1 0  0.5 1 0  0.75 1 0  1 1 0  </DataArray>
</Points>
<Cells>
<DataArray  type="UInt32"  Name="connectivity"  format="ascii">0 1 6  0 5 6  1 2 7  1 6 7  2 3 8  2 7 8  3 4 9  3 8 9  5 6 11  5 10 11  6 7 12  6 11 12  7 8 13  7 12 13  8 9 14  8 13 14  10 11 16  10 15 16  11 12 17  11 16 17  12 13 18  12 17 18  13 14 19  13 18 19  15 16 21  15 20 21  16 17 22  16 21 22  17 18 23  17 22 23  18 19 24  18 23 24  </DataArray>
<DataArray  type="UInt32"  Name="offsets"  format="ascii">3 6 9 12 15 18 21 24 27 30 33 36 39 42 45 48 51 54 57 60 63 66 69 72 75 78 81 84 87 90 93 96 </DataArray>
<DataArray  type="UInt8"  Name="types"  format="ascii">5 5 5 5 5 5 5 5 5 5 5 5 5 5 5 5 5 5 5 5 5 5 5 5 5 5 5 5 5 5 5 5 </DataArray>
</Cells>
<CellData  Scalars="f_42083"> 
<DataArray  type="Float64"  Name="f_42083"  format="ascii">4.0112261828651157e-04   3.5940427389675479e-04   7.1604530550563458e-05   1.8322245490917964e-04   3.6554200103426773e-04   3.2711352982209128e-04   7.0631694784343288e-04   5.3812674005537223e-04   1.4252612117502273e-04   3.9193082098191068e-05   4.1078342989873083e-04   3.8717258695691360e-04   4.7074002950546056e-04   5.3181120304191410e-04   1.9267465047569985e-04   1.9825092102435682e-04   3.2820301861928130e-04   4.4797882147414774e-04   5.0147620508637436e-04   4.6310436456460977e-04   3.1860771026115891e-04   2.8588341514436036e-04   1.3761226331300674e-04   2.8905719317797644e-04   6.2726692444889343e-04   7.8484272151660135e-04   1.7722966178400994e-04   2.5524380586782142e-04   2.3559682418718296e-04   7.2308395346965627e-05   6.8855609062540095e-04   6.3809813819847537e-04   </DataArray> 
</CellData> 
</Piece>
</UnstructuredGrid>
</VTKFile>