<?xml version="1.0"?>
<VTKFile type="UnstructuredGrid"  version="0.1"  >
<UnstructuredGrid>
<Piece  NumberOfPoints="1089" NumberOfCells="2048">
<Points>
<DataArray  type="Float64"  NumberOfComponents="3"  format="ascii">0 0 0  0.03125 0 0  0.0625 0 0  0.09375 0 0  0.125 0 0  0.15625 0 0  0.1875 0 0  0.21875 0 0  0.25 0 0  0.28125 0 0  0.3125 0 0  0.34375 0 0  0.375 0 0  0.40625 0 0  0.4375 0 0  0.46875 0 0  0.5 0 0  0.53125 0 0  0.5625 0 0  0.59375 0 0  0.625 0 0  0.65625 0 0  0.6875 0 0  0.71875 0 0  0.75 0 0  0.78125 0 0  0.8125 0 0  0.84375 0 0  0.875 0 0  0.90625 0 0  0.9375 0 0  0.96875 0 0  1 0 0  0 0.03125 0  0.03125 0.03125 0  0.0625 0.03125 0  0.09375 0.03125 0  0.125 0.03125 0  0.15625 0.03125 0  0.1875 0.03125 0  0.21875 0.03125 0  0.25 0.03125 0  0.28125 0.03125 0  0.3125 0.03125 0  0.34375 0.03125 0  0.375 0.03125 0  0.40625 0.03125 0  0.4375 0.03125 0  0.46875 0.03125 0  0.5 0.03125 0  0.53125 0.03125 0  0.5625 0.03125 0  0.59375 0.03125 0  0.625 0.03125 0  0.65625 0.03125 0  0.6875 0.03125 0  0.71875 0.03125 0  0.75 0.03125 0  0.78125 0.03125 0  0.8125 0.03125 0  0.84375 0.03125 0  0.875 0.03125 0  0.90625 0.03125 0  0.9375 0.03125 0  0.96875 0.03125 0  1 0.03125 0  0 0.0625 0  0.03125 0.0625 0  0.0625 0.0625 0  0.09375 0.0625 0  0.125 0.0625 0  0.15625 0.0625 0  0.1875 0.0625 0  0.21875 0.0625 0  0.25 0.0625 0  0.28125 0.0625 0  0.3125 0.0625 0  0.34375 0.0625 0  0.375 0.0625 0  0.40625 0.0625 0  0.4375 0.0625 0  0.46875 0.0625 0  0.5 0.0625 0  0.53125 0.0625 0  0.5625 0.0625 0  0.59375 0.0625 0  0.625 0.0625 0  0.65625 0.0625 0  0.6875 0.0625 0  0.71875 0.0625 0  0.75 0.0625 0  0.78125 0.0625 0  0.8125 0.0625 0  0.84375 0.0625 0  0.875 0.0625 0  0.90625 0.0625 0  0.9375 0.0625 0  0.96875 0.0625 0  1 0.0625 0  0 0.09375 0  0.03125 0.09375 0  0.0625 0.09375 0  0.09375 0.09375 0  0.125 0.09375 0  0.15625 0.09375 0  0.1875 0.09375 0  0.21875 0.09375 0  0.25 0.09375 0  0.28125 0.09375 0  0.3125 0.09375 0  0.34375 0.09375 0  0.375 0.09375 0  0.40625 0.09375 0  0.4375 0.09375 0  0.46875 0.09375 0  0.5 0.09375 0  0.53125 0.09375 0  0.5625 0.09375 0  0.59375 0.09375 0  0.625 0.09375 0  0.65625 0.09375 0  0.6875 0.09375 0  0.71875 0.09375 0  0.75 0.09375 0  0.78125 0.09375 0  0.8125 0.09375 0  0.84375 0.09375 0  0.875 0.09375 0  0.90625 0.09375 0  0.9375 0.09375 0  0.96875 0.09375 0  1 0.09375 0  0 0.125 0  0.03125 0.125 0  0.0625 0.125 0  0.09375 0.125 0  0.125 0.125 0  0.15625 0.125 0  0.1875 0.125 0  0.21875 0.125 0  0.25 0.125 0  0.28125 0.125 0  0.3125 0.125 0  0.34375 0.125 0  0.375 0.125 0  0.40625 0.125 0  0.4375 0.125 0  0.46875 0.125 0  0.5 0.125 0  0.53125 0.125 0  0.5625 0.125 0  0.59375 0.125 0  0.625 0.125 0  0.65625 0.125 0  0.6875 0.125 0  0.71875 0.125 0  0.75 0.125 0  0.78125 0.125 0  0.8125 0.125 0  0.84375 0.125 0  0.875 0.125 0  0.90625 0.125 0  0.9375 0.125 0  0.96875 0.125 0  1 0.125 0  0 0.15625 0  0.03125 0.15625 0  0.0625 0.15625 0  0.09375 0.15625 0  0.125 0.15625 0  0.15625 0.15625 0  0.1875 0.15625 0  0.21875 0.15625 0  0.25 0.15625 0  0.28125 0.15625 0  0.3125 0.15625 0  0.34375 0.15625 0  0.375 0.15625 0  0.40625 0.15625 0  0.4375 0.15625 0  0.46875 0.15625 0  0.5 0.15625 0  0.53125 0.15625 0  0.5625 0.15625 0  0.59375 0.15625 0  0.625 0.15625 0  0.65625 0.15625 0  0.6875 0.15625 0  0.71875 0.15625 0  0.75 0.15625 0  0.78125 0.15625 0  0.8125 0.15625 0  0.84375 0.15625 0  0.875 0.15625 0  0.90625 0.15625 0  0.9375 0.15625 0  0.96875 0.15625 0  1 0.15625 0  0 0.1875 0  0.03125 0.1875 0  0.0625 0.1875 0  0.09375 0.1875 0  0.125 0.1875 0  0.15625 0.1875 0  0.1875 0.1875 0  0.21875 0.1875 0  0.25 0.1875 0  0.28125 0.1875 0  0.3125 0.1875 0  0.34375 0.1875 0  0.375 0.1875 0  0.40625 0.1875 0  0.4375 0.1875 0  0.46875 0.1875 0  0.5 0.1875 0  0.53125 0.1875 0  0.5625 0.1875 0  0.59375 0.1875 0  0.625 0.1875 0  0.65625 0.1875 0  0.6875 0.1875 0  0.71875 0.1875 0  0.75 0.1875 0  0.78125 0.1875 0  0.8125 0.1875 0  0.84375 0.1875 0  0.875 0.1875 0  0.90625 0.1875 0  0.9375 0.1875 0  0.96875 0.1875 0  1 0.1875 0  0 0.21875 0  0.03125 0.21875 0  0.0625 0.21875 0  0.09375 0.21875 0  0.125 0.21875 0  0.15625 0.21875 0  0.1875 0.21875 0  0.21875 0.21875 0  0.25 0.21875 0  0.28125 0.21875 0  0.3125 0.21875 0  0.34375 0.21875 0  0.375 0.21875 0  0.40625 0.21875 0  0.4375 0.21875 0  0.46875 0.21875 0  0.5 0.21875 0  0.53125 0.21875 0  0.5625 0.21875 0  0.59375 0.21875 0  0.625 0.21875 0  0.65625 0.21875 0  0.6875 0.21875 0  0.71875 0.21875 0  0.75 0.21875 0  0.78125 0.21875 0  0.8125 0.21875 0  0.84375 0.21875 0  0.875 0.21875 0  0.90625 0.21875 0  0.9375 0.21875 0  0.96875 0.21875 0  1 0.21875 0  0 0.25 0  0.03125 0.25 0  0.0625 0.25 0  0.09375 0.25 0  0.125 0.25 0  0.15625 0.25 0  0.1875 0.25 0  0.21875 0.25 0  0.25 0.25 0  0.28125 0.25 0  0.3125 0.25 0  0.34375 0.25 0  0.375 0.25 0  0.40625 0.25 0  0.4375 0.25 0  0.46875 0.25 0  0.5 0.25 0  0.53125 0.25 0  0.5625 0.25 0  0.59375 0.25 0  0.625 0.25 0  0.65625 0.25 0  0.6875 0.25 0  0.71875 0.25 0  0.75 0.25 0  0.78125 0.25 0  0.8125 0.25 0  0.84375 0.25 0  0.875 0.25 0  0.90625 0.25 0  0.9375 0.25 0  0.96875 0.25 0  1 0.25 0  0 0.28125 0  0.03125 0.28125 0  0.0625 0.28125 0  0.09375 0.28125 0  0.125 0.28125 0  0.15625 0.28125 0  0.1875 0.28125 0  0.21875 0.28125 0  0.25 0.28125 0  0.28125 0.28125 0  0.3125 0.28125 0  0.34375 0.28125 0  0.375 0.28125 0  0.40625 0.28125 0  0.4375 0.28125 0  0.46875 0.28125 0  0.5 0.28125 0  0.53125 0.28125 0  0.5625 0.28125 0  0.59375 0.28125 0  0.625 0.28125 0  0.65625 0.28125 0  0.6875 0.28125 0  0.71875 0.28125 0  0.75 0.28125 0  0.78125 0.28125 0  0.8125 0.28125 0  0.84375 0.28125 0  0.875 0.28125 0  0.90625 0.28125 0  0.9375 0.28125 0  0.96875 0.28125 0  1 0.28125 0  0 0.3125 0  0.03125 0.3125 0  0.0625 0.3125 0  0.09375 0.3125 0  0.125 0.3125 0  0.15625 0.3125 0  0.1875 0.3125 0  0.21875 0.3125 0  0.25 0.3125 0  0.28125 0.3125 0  0.3125 0.3125 0  0.34375 0.3125 0  0.375 0.3125 0  0.40625 0.3125 0  0.4375 0.3125 0  0.46875 0.3125 0  0.5 0.3125 0  0.53125 0.3125 0  0.5625 0.3125 0  0.59375 0.3125 0  0.625 0.3125 0  0.65625 0.3125 0  0.6875 0.3125 0  0.71875 0.3125 0  0.75 0.3125 0  0.78125 0.3125 0  0.8125 0.3125 0  0.84375 0.3125 0  0.875 0.3125 0  0.90625 0.3125 0  0.9375 0.3125 0  0.96875 0.3125 0  1 0.3125 0  0 0.34375 0  0.03125 0.34375 0  0.0625 0.34375 0  0.09375 0.34375 0  0.125 0.34375 0  0.15625 0.34375 0  0.1875 0.34375 0  0.21875 0.34375 0  0.25 0.34375 0  0.28125 0.34375 0  0.3125 0.34375 0  0.34375 0.34375 0  0.375 0.34375 0  0.40625 0.34375 0  0.4375 0.34375 0  0.46875 0.34375 0  0.5 0.34375 0  0.53125 0.34375 0  0.5625 0.34375 0  0.59375 0.34375 0  0.625 0.34375 0  0.65625 0.34375 0  0.6875 0.34375 0  0.71875 0.34375 0  0.75 0.34375 0  0.78125 0.34375 0  0.8125 0.34375 0  0.84375 0.34375 0  0.875 0.34375 0  0.90625 0.34375 0  0.9375 0.34375 0  0.96875 0.34375 0  1 0.34375 0  0 0.375 0  0.03125 0.375 0  0.0625 0.375 0  0.09375 0.375 0  0.125 0.375 0  0.15625 0.375 0  0.1875 0.375 0  0.21875 0.375 0  0.25 0.375 0  0.28125 0.375 0  0.3125 0.375 0  0.34375 0.375 0  0.375 0.375 0  0.40625 0.375 0  0.4375 0.375 0  0.46875 0.375 0  0.5 0.375 0  0.53125 0.375 0  0.5625 0.375 0  0.59375 0.375 0  0.625 0.375 0  0.65625 0.375 0  0.6875 0.375 0  0.71875 0.375 0  0.75 0.375 0  0.78125 0.375 0  0.8125 0.375 0  0.84375 0.375 0  0.875 0.375 0  0.90625 0.375 0  0.9375 0.375 0  0.96875 0.375 0  1 0.375 0  0 0.40625 0  0.03125 0.40625 0  0.0625 0.40625 0  0.09375 0.40625 0  0.125 0.40625 0  0.15625 0.40625 0  0.1875 0.40625 0  0.21875 0.40625 0  0.25 0.40625 0  0.28125 0.40625 0  0.3125 0.40625 0  0.34375 0.40625 0  0.375 0.40625 0  0.40625 0.40625 0  0.4375 0.40625 0  0.46875 0.40625 0  0.5 0.40625 0  0.53125 0.40625 0  0.5625 0.40625 0  0.59375 0.40625 0  0.625 0.40625 0  0.65625 0.40625 0  0.6875 0.40625 0  0.71875 0.40625 0  0.75 0.40625 0  0.78125 0.40625 0  0.8125 0.40625 0  0.84375 0.40625 0  0.875 0.40625 0  0.90625 0.40625 0  0.9375 0.40625 0  0.96875 0.40625 0  1 0.40625 0  0 0.4375 0  0.03125 0.4375 0  0.0625 0.4375 0  0.09375 0.4375 0  0.125 0.4375 0  0.15625 0.4375 0  0.1875 0.4375 0  0.21875 0.4375 0  0.25 0.4375 0  0.28125 0.4375 0  0.3125 0.4375 0  0.34375 0.4375 0  0.375 0.4375 0  0.40625 0.4375 0  0.4375 0.4375 0  0.46875 0.4375 0  0.5 0.4375 0  0.53125 0.4375 0  0.5625 0.4375 0  0.59375 0.4375 0  0.625 0.4375 0  0.65625 0.4375 0  0.6875 0.4375 0  0.71875 0.4375 0  0.75 0.4375 0  0.78125 0.4375 0  0.8125 0.4375 0  0.84375 0.4375 0  0.875 0.4375 0  0.90625 0.4375 0  0.9375 0.4375 0  0.96875 0.4375 0  1 0.4375 0  0 0.46875 0  0.03125 0.46875 0  0.0625 0.46875 0  0.09375 0.46875 0  0.125 0.46875 0  0.15625 0.46875 0  0.1875 0.46875 0  0.21875 0.46875 0  0.25 0.46875 0  0.28125 0.46875 0  0.3125 0.46875 0  0.34375 0.46875 0  0.375 0.46875 0  0.40625 0.46875 0  0.4375 0.46875 0  0.46875 0.46875 0  0.5 0.46875 0  0.53125 0.46875 0  0.5625 0.46875 0  0.59375 0.46875 0  0.625 0.46875 0  0.65625 0.46875 0  0.6875 0.46875 0  0.71875 0.46875 0  0.75 0.46875 0  0.78125 0.46875 0  0.8125 0.46875 0  0.84375 0.46875 0  0.875 0.46875 0  0.90625 0.46875 0  0.9375 0.46875 0  0.96875 0.46875 0  1 0.46875 0  0 0.5 0  0.03125 0.5 0  0.0625 0.5 0  0.09375 0.5 0  0.125 0.5 0  0.15625 0.5 0  0.1875 0.5 0  0.21875 0.5 0  0.25 0.5 0  0.28125 0.5 0  0.3125 0.5 0  0.34375 0.5 0  0.375 0.5 0  0.40625 0.5 0  0.4375 0.5 0  0.46875 0.5 0  0.5 0.5 0  0.53125 0.5 0  0.5625 0.5 0  0.59375 0.5 0  0.625 0.5 0  0.65625 0.5 0  0.6875 0.5 0  0.71875 0.5 0  0.75 0.5 0  0.78125 0.5 0  0.8125 0.5 0  0.84375 0.5 0  0.875 0.5 0  0.90625 0.5 0  0.9375 0.5 0  0.96875 0.5 0  1 0.5 0  0 0.53125 0  0.03125 0.53125 0  0.0625 0.53125 0  0.09375 0.53125 0  0.125 0.53125 0  0.15625 0.53125 0  0.1875 0.53125 0  0.21875 0.53125 0  0.25 0.53125 0  0.28125 0.53125 0  0.3125 0.53125 0  0.34375 0.53125 0  0.375 0.53125 0  0.40625 0.53125 0  0.4375 0.53125 0  0.46875 0.53125 0  0.5 0.53125 0  0.53125 0.53125 0  0.5625 0.53125 0  0.59375 0.53125 0  0.625 0.53125 0  0.65625 0.53125 0  0.6875 0.53125 0  0.71875 0.53125 0  0.75 0.53125 0  0.78125 0.531
[...]
<CellData  Scalars="f_35747"> 
<DataArray  type="Float64"  Name="f_35747"  format="ascii">1.9825027359538374e-06   1.8090386635645590e-06   4.2505216693570531e-06   5.1306566882520485e-06   7.4598602077704490e-06   1.0042592457707974e-05   1.1487023239954776e-05   1.6550844166097175e-05   1.6176683989533495e-05   2.4401498322728462e-05   2.1348130197427136e-05   3.3290658254103407e-05   2.6802315334978407e-05   4.2875499566678794e-05   3.2329528118888487e-05   5.2787171635089260e-05   3.7717439934164915e-05   6.2644809799788673e-05   4.2759240012994649e-05   7.2070049085306979e-05   4.7261553857472872e-05   8.0701460806804768e-05   5.1051844263138563e-05   8.8208350733151621e-05   5.3985012146507052e-05   9.4303386156245985e-05   5.5948944091778015e-05   9.8753565339297167e-05   5.6868793422557017e-05   1.0138910669837610e-04   5.6709829917913088e-05   1.0210991492370098e-04   5.5478748081132020e-05   1.0088937423003206e-04   5.3223382981892126e-05   9.7775321553980333e-05   5.0030843834123569e-05   9.2888160872608823e-05   4.6024136270640366e-05   8.6416189742363322e-05   4.1357402371049847e-05   7.8608316411394932e-05   3.6209960617686096e-05   6.9764446287617489e-05   3.0779373976684830e-05   6.0223906231403893e-05   2.5273811299864214e-05   5.0352350526583991e-05   1.9903993448700571e-05   4.0527650356261663e-05   1.4875029134204807e-05   3.1125306517235710e-05   1.0378443852990347e-05   2.2503940600380805e-05   6.5846826589230900e-06   1.4991410376856079e-05   3.6363055947537594e-06   8.8720563108696100e-06   1.6419230696086093e-06   4.3755071056213094e-06   6.7028885375296144e-07   1.6673200145265236e-06   5.5718965452600883e-07   8.4141403508162781e-07   8.1310398888877511e-06   6.6331452224663687e-06   1.3079590322824207e-05   1.2699396951432539e-05   1.9563241831637427e-05   1.9075077242186662e-05   2.7326161639879245e-05   2.6774791921628668e-05   3.6067322991079688e-05   3.5499199671830306e-05   4.5449702737736361e-05   4.4911404595083230e-05   5.5112543225790085e-05   5.4649148901012639e-05   6.4684913177601725e-05   6.4338371712137382e-05   7.3799788406877465e-05   7.3607362599486937e-05   8.2108032381805469e-05   8.2100896837586200e-05   8.9291712476149512e-05   8.9493773945597407e-05   9.5076230833816236e-05   9.5503222929432086e-05   9.9240800062349818e-05   9.9899690305531920e-05   1.0162685928596612e-04   1.0251559288985187e-04   1.0214410563857268e-04   1.0325169692986506e-04   1.0077390793388974e-04   1.0208087682100869e-04   9.7569969814141158e-05   9.9049107475667343e-05   9.2656215389379308e-05   9.4273650776181231e-05   8.6221977200926934e-05   8.7938504450523234e-05   7.8514670159780792e-05   8.0287287039232605e-05   6.9830231899299663e-05   7.1613831323952948e-05   6.0501695958184409e-05   6.2250846836724912e-05   5.0886335952352905e-05   5.2557086428243338e-05   4.1351873432272185e-05   4.2903509404035480e-05   3.2262276954814528e-05   3.3658972118964701e-05   2.3963692896425011e-05   2.5175994529888261e-05   1.6771037618901578e-05   1.7777147252796073e-05   1.0955742954971503e-05   1.1742578581969887e-05   6.7350775649690019e-06   7.2991581034799074e-06   4.2633583793816150e-06   4.6116689301563292e-06   3.6252752587079134e-06   3.7765268649408425e-06   3.6547582965119917e-06   4.8193397354956096e-06   1.8187251365034087e-05   1.4718459617803368e-05   2.4584713767586123e-05   2.4200278724658969e-05   3.2199020117774005e-05   3.1738276390471870e-05   4.0729857840872233e-05   4.0232946415269095e-05   4.9846299746021295e-05   4.9354365600693168e-05   5.9196962299506234e-05   5.8750569771560328e-05   6.8422576077381114e-05   6.8060213388976840e-05   7.7169356398556439e-05   7.6926019015702670e-05   8.5102351305562399e-05   8.5008249104991080e-05   9.1918149785695928e-05   9.1997585007018705e-05   9.7356421001399372e-05   9.7626882239745306e-05   1.0120982271168575e-04   1.0168133351726386e-04   1.0333188921918708e-04   1.0400663965022038e-04   1.0364259095363381e-04   1.0451486874538143e-04   1.0213134904832655e-04   1.0318777493037136e-04   9.8857386833678200e-05   1.0007744646109784e-04   9.3947402885806043e-05   9.5304256235175013e-05   8.7590653449749626e-05   8.9052191737952285e-05   8.0031631848825451e-05   8.1561742432162773e-05   7.1560625094953988e-05   7.3120616744580975e-05   6.2502509759708219e-05   6.4052644511150859e-05   5.3204217076161653e-05   5.4705290794540193e-05   4.4021348541722994e-05   4.5436260690109450e-05   3.5304455922219899e-05   3.6599710020864992e-05   2.7385512142626440e-05   2.8532592377546562e-05   2.0565091488946038e-05   2.1541668364793323e-05   1.5100749186402455e-05   1.5891678944323313e-05   1.1197043795851079e-05   1.1795144394315572e-05   8.9975890141858723e-06   9.4042027692022519e-06   8.5794963745280339e-06   8.8048793000146893e-06   9.9508284254160547e-06   1.0014306687834113e-05   1.0025061971275974e-05   1.2982088295932191e-05   3.2095763327940383e-05   2.5853124480150286e-05   3.9694421333606767e-05   3.9317115131978173e-05   4.8092489235755728e-05   4.7666273675821453e-05   5.6960024933348812e-05   5.6520156488389779e-05   6.5953066189244607e-05   6.5535302467330210e-05   7.4724986713402809e-05   7.4363977408358899e-05   8.2938870302450289e-05   8.2666830999886725e-05   9.0279971990436998e-05   9.0125482513401340e-05   9.6467527712981586e-05   9.6454469461537619e-05   1.0126535362165664e-04   1.0141202202063886e-04   1.0449078436283932e-04   1.0480921029180714e-04   1.0602158648547274e-04   1.0651709391293014e-04   1.0580057036113603e-04   1.0647158900586168e-04   1.0383771685971543e-04   1.0467585901479716e-04   1.0020973278426223e-04   1.0120013311927994e-04   9.5057049100075820e-05   9.6178955907235840e-05   8.8578374987535873e-05   8.9805971442794518e-05   8.1023015181684740e-05   8.2326440146995779e-05   7.2681244438366633e-05   7.4027774481761249e-05   6.3873108034941090e-05   6.5228455985148897e-05   5.4936078106281334e-05   5.6265758844313495e-05   4.6212040000101387e-05   4.7482751521815702e-05   3.8034108997725175e-05   3.9215076220554509e-05   3.0713784695188041e-05   3.1778015149555119e-05   2.4528937885580251e-05   2.5454342435252894e-05   1.9713093700617699e-05   2.0483431907845619e-05   1.6446427325096689e-05   1.7052046155141048e-05   1.4848830682484622e-05   1.5287176434392450e-05   1.4975358300069135e-05   1.5251249084146158e-05   1.6814379873488058e-05   1.6939993838766869e-05   2.0289034864264838e-05   2.0283343212640371e-05   1.9573310362970093e-05   2.5149858499318617e-05   4.9436434003377953e-05   3.9695867108812018e-05   5.7936580010153081e-05   5.7575879440513275e-05   6.6733710728904088e-05   6.6347288345094905e-05   7.5483996682261403e-05   7.5102223582686206e-05   8.3848275482556310e-05   8.3501625679193662e-05   9.1504187850685931e-05   9.1221687271967065e-05   9.8157804386768418e-05   9.7965847761011986e-05   1.0355444247152725e-04   1.0347578809464768e-04   1.0748815192698145e-04   1.0754106907224657e-04   1.0980942667731757e-04   1.1000701410812888e-04   1.1043080393735808e-04   1.1078050401324396e-04   1.0933011433590889e-04   1.0983344224904605e-04   1.0655124631994844e-04   1.0720374626508458e-04   1.0220238824593277e-04   1.0299381971742696e-04   9.6451810836289525e-05   9.7366559338363945e-05   8.9521348555058282e-05   9.0539046222206206e-05   8.1677827768273736e-05   8.2774161116141212e-05   7.3222769114202770e-05   7.4370443722089190e-05   6.4480758384235557e-05   6.5650584050055982e-05   5.5786931905772782e-05   5.6948986955799203e-05   4.7474056970039973e-05   4.8598887146989670e-05   3.9859703961043347e-05   4.0919509793996377e-05   3.3234003930512553e-05   3.4203770801477053e-05   2.7848463627066312e-05   2.8706990933171405e-05   2.3906270503644025e-05   2.4637060355927146e-05   2.1554465228929861e-05   2.2146436875598785e-05   2.0878292969172020e-05   2.1326295851638502e-05   2.1897976012682974e-05   2.2203078930342653e-05   2.4568098740867939e-05   2.4737623329691543e-05   2.8779799052476729e-05   2.8827007343975719e-05   3.4366039955676730e-05   3.4309209375559682e-05   3.2026591730547965e-05   4.0970486917331734e-05   6.9639624386892547e-05   5.5787687268900373e-05   7.8700013540493341e-05   7.8363750347638402e-05   8.7488322489585288e-05   8.7145527079363912e-05   9.5662768011893875e-05   9.5339136381549368e-05   1.0290696176718242e-04   1.0262790822455212e-04   1.0894184609131939e-04   1.0873113542265449e-04   1.1353592474099418e-04   1.1341463287441178e-04   1.1651375104580232e-04   1.1649942987751292e-04   1.1776238009837475e-04   1.1786838723034794e-04   1.1723550575978004e-04   1.1747050110346495e-04   1.1495509328537111e-04   1.1532271603819115e-04   1.1101042506035419e-04   1.1150916322815786e-04   1.0555458404546574e-04   1.0617784267129683e-04   9.8798502405718602e-05   9.9534869225842291e-05   9.1002798803522481e-05   9.1836498355073035e-05   8.2467714269686103e-05   8.3379234029801413e-05   7.3521530605017419e-05   7.4488395895619180e-05   6.4507914320408960e-05   6.5505582742630765e-05   5.5772671046177685e-05   5.6775512356917395e-05   4.7650418592355269e-05   4.8632742390280542e-05   4.0451690568421101e-05   4.1388782064058645e-05   3.4450966578089876e-05   3.5320090171095587e-05   2.9876090177345165e-05   3.0657421592094509e-05   2.6899483534559040e-05   2.7576933837095415e-05   2.5631500498977091e-05   2.6193399261946799e-05   2.6116181213013825e-05   2.6555790875626391e-05   2.8329587025034301e-05   2.8645424535445485e-05   3.2180812798086784e-05   3.2376753609573105e-05   3.7515706183052826e-05   3.7600829523368194e-05   4.4123273792604261e-05   4.4111360650409885e-05   5.1744669592738127e-05   5.1653187710604942e-05   4.6986750548433219e-05   5.9932739621043361e-05   9.2008685442807471e-05   7.3570214775219082e-05   1.0125979808729165e-04   1.0095437394362704e-04   1.0962426793688285e-04   1.0932782644658137e-04   1.1677820829005287e-04   1.1651206938629962e-04   1.2244529492285380e-04   1.2223013716809801e-04   1.2640748318991675e-04   1.2626222155478665e-04   1.2851312869725139e-04   1.2845403587711748e-04   1.2868251043849147e-04   1.2872253526383917e-04   1.2691064225831141e-04   1.2705889528207202e-04   1.2326727484038101e-04   1.2352867490564206e-04   1.1789407535906239e-04   1.1826916142895847e-04   1.1099907891755044e-04   1.1148399227346812e-04   1.0284861409936197e-04   1.0343525198045358e-04   9.3757005249451146e-05   9.4433341054147321e-05   8.4074441785066695e-05   8.4825000542725277e-05   7.4173476767621757e-05   7.4979948407858895e-05   6.4434670683172505e-05   6.5276638070814396e-05   5.5231930032858045e-05   5.6087684049352799e-05   4.6918102748964400e-05   4.7765513082290800e-05   3.9811383230804840e-05   4.0628791124600276e-05   3.4183049347062577e-05   3.4950147452566320e-05   3.0247003321124046e-05   3.0945668031608386e-05   2.8151520062248608e-05   2.8766563266119357e-05   2.7973523106478227e-05   2.8493333040253835e-05   2.9715613611369607e-05   3.0132658085427632e-05   3.3305976473310055e-05   3.3617145376521761e-05   3.8601185255771984e-05   3.8807951156731857e-05   4.5391830216701389e-05   4.5500202705625351e-05   5.3410803979546978e-05   5.3431040568915195e-05   6.2343984835605938e-05   6.2289998881289395e-05   7.1842907210244042e-05   7.1731306431328603e-05   6.3945688240087383e-05   8.1387486986080691e-05   1.1574843354393867e-04   9.2408583367102102e-05   1.2480720401692927e-04   1.2453778380610181e-04   1.3234228241639919e-04   1.3209405807504014e-04   1.3806306256508935e-04   1.3785329710502641e-04   1.4174919899186356e-04   1.4159421695126355e-04   1.4325927433542104e-04   1.4317358481354204e-04   1.4253613154750926e-04   1.4253171921107112e-04   1.3960886843045770e-04   1.3969465569415310e-04   1.3459152051020919e-04   1.3477298780143683e-04   1.2767851568891672e-04   1.2795747286253005e-04   1.1913707769962626e-04   1.1951158521535571e-04   1.0929686317064435e-04   1.0976130246300949e-04   9.8537222280205115e-05   9.9082512017970446e-05   8.7272565614111104e-05   8.7886516006758256e-05   7.5936394221098419e-05   7.6604186423637934e-05   6.4964602579119655e-05   6.5669375297236983e-05   5.4778693178884880e-05   5.5502214206889610e-05   4.5769545675960745e-05   4.6492942560178617e-05   3.8282362986279743e-05   3.8986884462680317e-05   3.2603372170860373e-05   3.3271150577860890e-05   2.8948791257433348e-05   2.9563575823954966e-05   2.7456486940470858e-05   2.8004318684123766e-05   2.8180645849231061e-05   2.8650446705305848e-05   3.1089667969120947e-05   3.1473719495020232e-05   3.6067369658779348e-05   3.6361659794722783e-05   4.2917460785463492e-05   4.3121879909335372e-05   5.1371141002520769e-05   5.1489509615222263e-05   6.1097547817684500e-05   6.1137456138362237e-05   7.1716682547723448e-05   7.1689117127930087e-05   8.2814327240194357e-05   8.2733058126945432e-05   9.3958320311836365e-05   9.3839046067254619e-05   8.2306120526309874e-05   1.0457469899007163e-04   1.3999775240270242e-04   1.1161744503505847e-04   1.4848291274170805e-04   1.4825360612442560e-04   1.5480886621838013e-04   1.5461003600154513e-04   1.5873267057567303e-04   1.5857784191545128e-04   1.6010390043073012e-04   1.6000544628736127e-04   1.5887062807953302e-04   1.5883910793446643e-04   1.5508140298577130e-04   1.5512501806334145e-04   1.4888326660916372e-04   1.4900745628683307e-04   1.4051595884260950e-04   1.4072313859013970e-04   1.3030257643584385e-04   1.3059201299496021e-04   1.1863705362251414e-04   1.1900487347714977e-04   1.0596894507814656e-04   1.0640827180760461e-04   9.2786090883910317e-05   9.3287304741875536e-05   7.9595824044091494e-05   8.0146933627906283e-05   6.6905437853526464e-05   6.7492549794962429e-05   5.5202659874691582e-05   5.5810528684999068e-05   4.4936879994988389e-05   4.5549516924804265e-05   3.6501851909480441e-05   3.7103169172470988e-05   3.0220531521962608e-05   3.0794996621241653e-05   2.6332634388153162e-05   2.6865908643136394e-05   2.4985390643319527e-05   2.5464926353250586e-05   2.6227853953483963e-05   2.6643425898164276e-05   3.0008985731693012e-05   3.0353134771489811e-05   3.6179592564785347e-05   3.6447961719137532e-05   4.4498049221754974e-05   4.4689595389277111e-05   5.4639597428916698e-05   5.4756664309075260e-05   6.6208876706988121e-05   6.6257115924391993e-05   7.8755220835803244e-05   7.8743348769588515e-05   9.1790140913433076e-05   9.1729520410235591e-05   1.0480630758255877e-04   1.0471035324380476e-04   1.1729723505672082e-04   1.1718067036786564e-04   1.0140611364188083e-04   1.2865482602803066e-04   1.6386476383330406e-04   1.3048892218071222e-04   1.7141212329775289e-04   1.7122614427285247e-04   1.7619040776879370e-04   1.7604159085173968e-04   1.7801715042203338e-04   1.7791559768630654e-04   1.7682328242294695e-04   1.7677781535436636e-04   1.7265595130327408e-04   1.7267362962472820e-04   1.6567673339785158e-04   1.6576245900870357e-04   1.5615536415308689e-04   1.5631159965436928e-04   1.4445928022528440e-04   1.4468588958031179e-04   1.3103940763472174e-04   1.3133361748763998e-04   1.1641275606690469e-04   1.1676923298966201e-04   1.0114249100438094e-04   1.0155352801291477e-04   8.5816247095154132e-05   8.6272050506819853e-05   7.1023512044389353e-05   7.1512576961089069e-05   5.7332946003726281e-05   5.7842505728015326e-05   4.5270504537969907e-05   4.5787036445923320e-05   3.5299203171976674e-05   3.5808971278325732e-05   2.7801299244723829e-05   2.8290912095102992e-05   2.3063574679815727e-05   2.3520536399896019e-05   2.1266284900002413e-05   2.1679517258026254e-05   2.2476199084537599e-05   2.2836513260889607e-05   2.6644000765712496e-05   2.6944499089201748e-05   3.3606151490774023e-05   3.3842541552737230e-05   4.3091150414274363e-05   4.3261956492772794e-05   5.4729955746582507e-05   5.4836615090803921e-05   6.8070176058341941e-05   6.8117010039987029e-05   8.2593495574265706e-05   8.2587547998809634e-05   9.7735671012166240e-05   9.7686408742529962e-05   1.1290832920384497e-04   1.1282720595849636e-04   1.2752170455648695e-04   1.2742160160719327e-04   1.4100738728536994e-04   1.4090196964692815e-04   1.2054616786448828e-04   1.5274318737966528e-04   1.8646307623087799e-04   1.4832132792955686e-04   1.9274011323745666e-04   1.9259991006863951e-04   1.9568710979761967e-04   1.9558845601109747e-04   1.9519278390231861e-04   1.9514266620457657e-04   1.9127790390972832e-04   1.9128197726403187e-04   1.8409461154276523e-04   1.8415686588982478e-04   1.7392061442014019e-04   1.7404310782549891e-04   1.6114849320241937e-04   1.6133117815484468e-04   1.4627056501090505e-04   1.4651121767109840e-04   1.2985990812335358e-04   1.3015416066261228e-04   1.1254828966420220e-04   1.1288976082476525e-04   9.5001848667202317e-05   9.5382364688554531e-05   7.7895468317010767e-05   7.8305363942006174e-05   6.1886819425477935e-05   6.2315306355551918e-05   4.7591069323930493e-05   4.8026657264227125e-05   3.5557225076263181e-05   3.5988178587303923e-05   2.6247017735461084e-05   2.6661830677189199e-05   2.0017137440028618e-05   2.0405005986762124e-05   1.7105501126316933e-05   1.7456776213146584e-05   1.7622080443620700e-05   1.7928681081627696e-05   2.1544643074985958e-05   2.1800413198405163e-05   2.8719572853324242e-05   2.8920566143506872e-05   3.8867740086006780e-05   3.9012419421695120e-05   5.1595200802204979e-05   5.1684541453922417e-05   6.6408319446407808e-05   6.6445807721926268e-05   8.2732740447006599e-05   8.2724262176056055e-05   9.9935485571919449e-05   9.9889101866167064e-05   1.1734933009987382e-04   1.1727494208777490e-04   1.3429851443871963e-04   1.3420742577025630e-04   1.5012478201444974e-04   1.5002917988210973e-04   1.6421270536217026e-04   1.6412509850604392e-04   1.3901768170257494e-04   1.7594595492328798e-04   2.0694764490356929e-04   1.6444750016380349e-04   2.1166683055308521e-04   2.1157418322233622e-04   2.1256538963720402e-04   2.1251663236457509e-04   2.0961138343707480e-04   2.0961068409285584e-04   2.0292059706903212e-04   2.0297080655618514e-04   1.9275217256011369e-04   1.9285461283184151e-04   1.7949869237650871e-04   1.7965299918229455e-04   1.6367109829251586e-04   1.6387514011298405e-04   1.4587904000417870e-04   1.4612892230568049e-04   1.2680742293359347e-04   1.2709757820486404e-04   1.0719006553128790e-04   1.0751342410925280e-04   8.7781482140905398e-05   8.8129715345064294e-05   6.9327875838564145e-05   6.9691700422724236e-05   5.2538454093743372e-05   5.2907985012896227e-05   3.8058167043106365e-05   3.8423303904416397e-05   2.6442913600115782e-05   2.6793744963342617e-05   1.8138166255648908e-05   1.8465375253811142e-05   1.3461834670539098e-05   1.3757089296599180e-05   1.2592025951955502e-05   1.2848337821377906e-05   1.5560172063143017e-05   1.5772208490791933e-05   2.2249789369664706e-05   2.2414125129745249e-05   3.2400919804022188e-05   3.2516216880052110e-05   4.5620085819381963e-05   4.5687191688242798e-05   6.1395380474981332e-05   6.1417337904822936e-05   7.9116117517357857e-05   7.9098081451135286e-05   9.8096291267282324e-05   9.8045351206080684e-05   1.1760094845495050e-04   1.1752585818328539e-04   1.3687445862224434e-04   1.3678527978138209e-04   1.5516959023739957e-04   1.5507726301267009e-04   1.7177626030153459e-04   1.7169212389208380e-04   1.8604883125695036e-04   1.8598412823283590e-04   1.5613163764895816e-04   1.9739629588209985e-04   2.2454882463846996e-04   1.7826163121652215e-04   2.2747915299191484e-04   2.2743523824215718e-04   2.2618749057568439e-04   2.2618796698919698e-04   2.2072650476722685e-04   2.2077300181562535e-04   2.1130865618534492e-04   2.1140155619561631e-04   1.9829808628480595e-04   1.9843641246399839e-04   1.8219666444044361e-04   1.8237801535526583e-04   1.6362472502074333e-04   1.6384527148658395e-04   1.4329723893057164e-04   1.4355179042515497e-04   1.2199634198545818e-04   1.2227848245978111e-04   1.0054128087829425e-04   1.0084356864898324e-04   7.9756933988848650e-05   8.0071156860093219e-05   6.0442116757062638e-05   6.0759591089695269e-05   4.3338888262435229e-05   4.3650789018359699e-05   2.91040366