<?xml version="1.0"?>
<VTKFile type="UnstructuredGrid"  version="0.1"  >
<UnstructuredGrid>
<Piece  NumberOfPoints="1089" NumberOfCells="2048">
<Points>
<DataArray  type="Float64"  NumberOfComponents="3"  format="ascii">0 0 0  0.03125 0 0  0.0625 0 0  0.09375 0 0  0.125 0 0  0.15625 0 0  0.1875 0 0  0.21875 0 0  0.25 0 0  0.28125 0 0  0.3125 0 0  0.34375 0 0  0.375 0 0  0.40625 0 0  0.4375 0 0  0.46875 0 0  0.5 0 0  0.53125 0 0  0.5625 0 0  0.59375 0 0  0.625 0 0  0.65625 0 0  0.6875 0 0  0.71875 0 0  0.75 0 0  0.78125 0 0  0.8125 0 0  0.84375 0 0  0.875 0 0  0.90625 0 0  0.9375 0 0  0.96875 0 0  1 0 0  0 0.03125 0  0.03125 0.03125 0  0.0625 0.03125 0  0.09375 0.03125 0  0.125 0.03125 0  0.15625 0.03125 0  0.1875 0.03125 0  0.21875 0.03125 0  0.25 0.03125 0  0.28125 0.03125 0  0.3125 0.03125 0  0.34375 0.03125 0  0.375 0.03125 0  0.40625 0.03125 0  0.4375 0.03125 0  0.46875 0.03125 0  0.5 0.03125 0  0.53125 0.03125 0  0.5625 0.03125 0  0.59375 0.03125 0  0.625 0.03125 0  0.65625 0.03125 0  0.6875 0.03125 0  0.71875 0.03125 0  0.75 0.03125 0  0.78125 0.03125 0  0.8125 0.03125 0  0.84375 0.03125 0  0.875 0.03125 0  0.90625 0.03125 0  0.9375 0.03125 0  0.96875 0.03125 0  1 0.03125 0  0 0.0625 0  0.03125 0.0625 0  0.0625 0.0625 0  0.09375 0.0625 0  0.125 0.0625 0  0.15625 0.0625 0  0.1875 0.0625 0  0.21875 0.0625 0  0.25 0.0625 0  0.28125 0.0625 0  0.3125 0.0625 0  0.34375 0.0625 0  0.375 0.0625 0  0.40625 0.0625 0  0.4375 0.0625 0  0.46875 0.0625 0  0.5 0.0625 0  0.53125 0.0625 0  0.5625 0.0625 0  0.59375 0.0625 0  0.625 0.0625 0  0.65625 0.0625 0  0.6875 0.0625 0  0.71875 0.0625 0  0.75 0.0625 0  0.78125 0.0625 0  0.8125 0.0625 0  0.84375 0.0625 0  0.875 0.0625 0  0.90625 0.0625 0  0.9375 0.0625 0  0.96875 0.0625 0  1 0.0625 0  0 0.09375 0  0.03125 0.09375 0  0.0625 0.09375 0  0.09375 0.09375 0  0.125 0.09375 0  0.15625 0.09375 0  0.1875 0.09375 0  0.21875 0.09375 0  0.25 0.09375 0  0.28125 0.09375 0  0.3125 0.09375 0  0.34375 0.09375 0  0.375 0.09375 0  0.40625 0.09375 0  0.4375 0.09375 0  0.46875 0.09375 0  0.5 0.09375 0  0.53125 0.09375 0  0.5625 0.09375 0  0.59375 0.09375 0  0.625 0.09375 0  0.65625 0.09375 0  0.6875 0.09375 0  0.71875 0.09375 0  0.75 0.09375 0  0.78125 0.09375 0  0.8125 0.09375 0  0.84375 0.09375 0  0.875 0.09375 0  0.90625 0.09375 0  0.9375 0.09375 0  0.96875 0.09375 0  1 0.09375 0  0 0.125 0  0.03125 0.125 0  0.0625 0.125 0  0.09375 0.125 0  0.125 0.125 0  0.15625 0.125 0  0.1875 0.125 0  0.21875 0.125 0  0.25 0.125 0  0.28125 0.125 0  0.3125 0.125 0  0.34375 0.125 0  0.375 0.125 0  0.40625 0.125 0  0.4375 0.125 0  0.46875 0.125 0  0.5 0.125 0  0.53125 0.125 0  0.5625 0.125 0  0.59375 0.125 0  0.625 0.125 0  0.65625 0.125 0  0.6875 0.125 0  0.71875 0.125 0  0.75 0.125 0  0.78125 0.125 0  0.8125 0.125 0  0.84375 0.125 0  0.875 0.125 0  0.90625 0.125 0  0.9375 0.125 0  0.96875 0.125 0  1 0.125 0  0 0.15625 0  0.03125 0.15625 0  0.0625 0.15625 0  0.09375 0.15625 0  0.125 0.15625 0  0.15625 0.15625 0  0.1875 0.15625 0  0.21875 0.15625 0  0.25 0.15625 0  0.28125 0.15625 0  0.3125 0.15625 0  0.34375 0.15625 0  0.375 0.15625 0  0.40625 0.15625 0  0.4375 0.15625 0  0.46875 0.15625 0  0.5 0.15625 0  0.53125 0.15625 0  0.5625 0.15625 0  0.59375 0.15625 0  0.625 0.15625 0  0.65625 0.15625 0  0.6875 0.15625 0  0.71875 0.15625 0  0.75 0.15625 0  0.78125 0.15625 0  0.8125 0.15625 0  0.84375 0.15625 0  0.875 0.15625 0  0.90625 0.15625 0  0.9375 0.15625 0  0.96875 0.15625 0  1 0.15625 0  0 0.1875 0  0.03125 0.1875 0  0.0625 0.1875 0  0.09375 0.1875 0  0.125 0.1875 0  0.15625 0.1875 0  0.1875 0.1875 0  0.21875 0.1875 0  0.25 0.1875 0  0.28125 0.1875 0  0.3125 0.1875 0  0.34375 0.1875 0  0.375 0.1875 0  0.40625 0.1875 0  0.4375 0.1875 0  0.46875 0.1875 0  0.5 0.1875 0  0.53125 0.1875 0  0.5625 0.1875 0  0.59375 0.1875 0  0.625 0.1875 0  0.65625 0.1875 0  0.6875 0.1875 0  0.71875 0.1875 0  0.75 0.1875 0  0.78125 0.1875 0  0.8125 0.1875 0  0.84375 0.1875 0  0.875 0.1875 0  0.90625 0.1875 0  0.9375 0.1875 0  0.96875 0.1875 0  1 0.1875 0  0 0.21875 0  0.03125 0.21875 0  0.0625 0.21875 0  0.09375 0.21875 0  0.125 0.21875 0  0.15625 0.21875 0  0.1875 0.21875 0  0.21875 0.21875 0  0.25 0.21875 0  0.28125 0.21875 0  0.3125 0.21875 0  0.34375 0.21875 0  0.375 0.21875 0  0.40625 0.21875 0  0.4375 0.21875 0  0.46875 0.21875 0  0.5 0.21875 0  0.53125 0.21875 0  0.5625 0.21875 0  0.59375 0.21875 0  0.625 0.21875 0  0.65625 0.21875 0  0.6875 0.21875 0  0.71875 0.21875 0  0.75 0.21875 0  0.78125 0.21875 0  0.8125 0.21875 0  0.84375 0.21875 0  0.875 0.21875 0  0.90625 0.21875 0  0.9375 0.21875 0  0.96875 0.21875 0  1 0.21875 0  0 0.25 0  0.03125 0.25 0  0.0625 0.25 0  0.09375 0.25 0  0.125 0.25 0  0.15625 0.25 0  0.1875 0.25 0  0.21875 0.25 0  0.25 0.25 0  0.28125 0.25 0  0.3125 0.25 0  0.34375 0.25 0  0.375 0.25 0  0.40625 0.25 0  0.4375 0.25 0  0.46875 0.25 0  0.5 0.25 0  0.53125 0.25 0  0.5625 0.25 0  0.59375 0.25 0  0.625 0.25 0  0.65625 0.25 0  0.6875 0.25 0  0.71875 0.25 0  0.75 0.25 0  0.78125 0.25 0  0.8125 0.25 0  0.84375 0.25 0  0.875 0.25 0  0.90625 0.25 0  0.9375 0.25 0  0.96875 0.25 0  1 0.25 0  0 0.28125 0  0.03125 0.28125 0  0.0625 0.28125 0  0.09375 0.28125 0  0.125 0.28125 0  0.15625 0.28125 0  0.1875 0.28125 0  0.21875 0.28125 0  0.25 0.28125 0  0.28125 0.28125 0  0.3125 0.28125 0  0.34375 0.28125 0  0.375 0.28125 0  0.40625 0.28125 0  0.4375 0.28125 0  0.46875 0.28125 0  0.5 0.28125 0  0.53125 0.28125 0  0.5625 0.28125 0  0.59375 0.28125 0  0.625 0.28125 0  0.65625 0.28125 0  0.6875 0.28125 0  0.71875 0.28125 0  0.75 0.28125 0  0.78125 0.28125 0  0.8125 0.28125 0  0.84375 0.28125 0  0.875 0.28125 0  0.90625 0.28125 0  0.9375 0.28125 0  0.96875 0.28125 0  1 0.28125 0  0 0.3125 0  0.03125 0.3125 0  0.0625 0.3125 0  0.09375 0.3125 0  0.125 0.3125 0  0.15625 0.3125 0  0.1875 0.3125 0  0.21875 0.3125 0  0.25 0.3125 0  0.28125 0.3125 0  0.3125 0.3125 0  0.34375 0.3125 0  0.375 0.3125 0  0.40625 0.3125 0  0.4375 0.3125 0  0.46875 0.3125 0  0.5 0.3125 0  0.53125 0.3125 0  0.5625 0.3125 0  0.59375 0.3125 0  0.625 0.3125 0  0.65625 0.3125 0  0.6875 0.3125 0  0.71875 0.3125 0  0.75 0.3125 0  0.78125 0.3125 0  0.8125 0.3125 0  0.84375 0.3125 0  0.875 0.3125 0  0.90625 0.3125 0  0.9375 0.3125 0  0.96875 0.3125 0  1 0.3125 0  0 0.34375 0  0.03125 0.34375 0  0.0625 0.34375 0  0.09375 0.34375 0  0.125 0.34375 0  0.15625 0.34375 0  0.1875 0.34375 0  0.21875 0.34375 0  0.25 0.34375 0  0.28125 0.34375 0  0.3125 0.34375 0  0.34375 0.34375 0  0.375 0.34375 0  0.40625 0.34375 0  0.4375 0.34375 0  0.46875 0.34375 0  0.5 0.34375 0  0.53125 0.34375 0  0.5625 0.34375 0  0.59375 0.34375 0  0.625 0.34375 0  0.65625 0.34375 0  0.6875 0.34375 0  0.71875 0.34375 0  0.75 0.34375 0  0.78125 0.34375 0  0.8125 0.34375 0  0.84375 0.34375 0  0.875 0.34375 0  0.90625 0.34375 0  0.9375 0.34375 0  0.96875 0.34375 0  1 0.34375 0  0 0.375 0  0.03125 0.375 0  0.0625 0.375 0  0.09375 0.375 0  0.125 0.375 0  0.15625 0.375 0  0.1875 0.375 0  0.21875 0.375 0  0.25 0.375 0  0.28125 0.375 0  0.3125 0.375 0  0.34375 0.375 0  0.375 0.375 0  0.40625 0.375 0  0.4375 0.375 0  0.46875 0.375 0  0.5 0.375 0  0.53125 0.375 0  0.5625 0.375 0  0.59375 0.375 0  0.625 0.375 0  0.65625 0.375 0  0.6875 0.375 0  0.71875 0.375 0  0.75 0.375 0  0.78125 0.375 0  0.8125 0.375 0  0.84375 0.375 0  0.875 0.375 0  0.90625 0.375 0  0.9375 0.375 0  0.96875 0.375 0  1 0.375 0  0 0.40625 0  0.03125 0.40625 0  0.0625 0.40625 0  0.09375 0.40625 0  0.125 0.40625 0  0.15625 0.40625 0  0.1875 0.40625 0  0.21875 0.40625 0  0.25 0.40625 0  0.28125 0.40625 0  0.3125 0.40625 0  0.34375 0.40625 0  0.375 0.40625 0  0.40625 0.40625 0  0.4375 0.40625 0  0.46875 0.40625 0  0.5 0.40625 0  0.53125 0.40625 0  0.5625 0.40625 0  0.59375 0.40625 0  0.625 0.40625 0  0.65625 0.40625 0  0.6875 0.40625 0  0.71875 0.40625 0  0.75 0.40625 0  0.78125 0.40625 0  0.8125 0.40625 0  0.84375 0.40625 0  0.875 0.40625 0  0.90625 0.40625 0  0.9375 0.40625 0  0.96875 0.40625 0  1 0.40625 0  0 0.4375 0  0.03125 0.4375 0  0.0625 0.4375 0  0.09375 0.4375 0  0.125 0.4375 0  0.15625 0.4375 0  0.1875 0.4375 0  0.21875 0.4375 0  0.25 0.4375 0  0.28125 0.4375 0  0.3125 0.4375 0  0.34375 0.4375 0  0.375 0.4375 0  0.40625 0.4375 0  0.4375 0.4375 0  0.46875 0.4375 0  0.5 0.4375 0  0.53125 0.4375 0  0.5625 0.4375 0  0.59375 0.4375 0  0.625 0.4375 0  0.65625 0.4375 0  0.6875 0.4375 0  0.71875 0.4375 0  0.75 0.4375 0  0.78125 0.4375 0  0.8125 0.4375 0  0.84375 0.4375 0  0.875 0.4375 0  0.90625 0.4375 0  0.9375 0.4375 0  0.96875 0.4375 0  1 0.4375 0  0 0.46875 0  0.03125 0.46875 0  0.0625 0.46875 0  0.09375 0.46875 0  0.125 0.46875 0  0.15625 0.46875 0  0.1875 0.46875 0  0.21875 0.46875 0  0.25 0.46875 0  0.28125 0.46875 0  0.3125 0.46875 0  0.34375 0.46875 0  0.375 0.46875 0  0.40625 0.46875 0  0.4375 0.46875 0  0.46875 0.46875 0  0.5 0.46875 0  0.53125 0.46875 0  0.5625 0.46875 0  0.59375 0.46875 0  0.625 0.46875 0  0.65625 0.46875 0  0.6875 0.46875 0  0.71875 0.46875 0  0.75 0.46875 0  0.78125 0.46875 0  0.8125 0.46875 0  0.84375 0.46875 0  0.875 0.46875 0  0.90625 0.46875 0  0.9375 0.46875 0  0.96875 0.46875 0  1 0.46875 0  0 0.5 0  0.03125 0.5 0  0.0625 0.5 0  0.09375 0.5 0  0.125 0.5 0  0.15625 0.5 0  0.1875 0.5 0  0.21875 0.5 0  0.25 0.5 0  0.28125 0.5 0  0.3125 0.5 0  0.34375 0.5 0  0.375 0.5 0  0.40625 0.5 0  0.4375 0.5 0  0.46875 0.5 0  0.5 0.5 0  0.53125 0.5 0  0.5625 0.5 0  0.59375 0.5 0  0.625 0.5 0  0.65625 0.5 0  0.6875 0.5 0  0.71875 0.5 0  0.75 0.5 0  0.78125 0.5 0  0.8125 0.5 0  0.84375 0.5 0  0.875 0.5 0  0.90625 0.5 0  0.9375 0.5 0  0.96875 0.5 0  1 0.5 0  0 0.53125 0  0.03125 0.53125 0  0.0625 0.53125 0  0.09375 0.53125 0  0.125 0.53125 0  0.15625 0.53125 0  0.1875 0.53125 0  0.21875 0.53125 0  0.25 0.53125 0  0.28125 0.53125 0  0.3125 0.53125 0  0.34375 0.53125 0  0.375 0.53125 0  0.40625 0.53125 0  0.4375 0.53125 0  0.46875 0.53125 0  0.5 0.53125 0  0.53125 0.53125 0  0.5625 0.53125 0  0.59375 0.53125 0  0.625 0.53125 0  0.65625 0.53125 0  0.6875 0.53125 0  0.71875 0.53125 0  0.75 0.53125 0  0.78125 0.531
[...]
<CellData  Scalars="f_59148"> 
<DataArray  type="Float64"  Name="f_59148"  format="ascii">3.7074464510557706e-10   3.6821419647256645e-10   3.5393670211214635e-10   3.6309917505956343e-10   3.3111997647418566e-10   3.4202930193565406e-10   3.0309311234043753e-10   3.1535265695403195e-10   2.7091968012181791e-10   2.8416922114849241e-10   2.3583232147572464e-10   2.4969213523570366e-10   1.9917831499444586e-10   2.1324821804813685e-10   1.6236594864300931e-10   1.7623775306042523e-10   1.2680984078676473e-10   1.4008272868568164e-10   9.3876401603992523e-11   1.0617242061030933e-10   6.4831268156884037e-11   7.5809950255926261e-11   4.0790651661642414e-11   5.0162148787499993e-11   2.2678439827977853e-11   3.0214683973201191e-11   1.1190693740564816e-11   1.6734166978596506e-11   6.7689007100543327e-12   1.0238686855090540e-11   9.5830101077818390e-12   1.0977899924130661e-11   1.9524903941316490e-11   1.8923436652802623e-11   3.6212553127864575e-11   3.3769993535505548e-11   5.9004699840437431e-11   5.4947067634812538e-11   8.7025501837798784e-11   8.1640882818731538e-11   1.1919819206749422e-10   1.1282566528109549e-10   1.5428646080887215e-10   1.4730306679411492e-10   1.9094197217150966e-10   1.8374822107717237e-10   2.2775619412441723e-10   2.2076066354559920e-10   2.6331456396689863e-10   2.5691815670832404e-10   2.9625094537359442e-10   2.9083134797890472e-10   3.2530039788819893e-10   3.2119714246100803e-10   3.4934862497400250e-10   3.4684868294854522e-10   3.6747767827053849e-10   3.6679979238228860e-10   3.7901596187712132e-10   3.8028161442921091e-10   3.8358007099442411e-10   3.8675624461066825e-10   3.7441465398522791e-10   3.8607973960228841e-10   3.5897911527205967e-10   3.4402037236210033e-10   3.4050285196359452e-10   3.3717553158274585e-10   3.1636957714201696e-10   3.1512223010806727e-10   2.8759683207080304e-10   2.8838280303118382e-10   2.5529949809271872e-10   2.5798343391837385e-10   2.2071995220793236e-10   2.2509437215361350e-10   1.8518704159983165e-10   1.9098080900191949e-10   1.5006615361692523e-10   1.5695411574133921e-10   1.1670689713162859e-10   1.2432196626390838e-10   8.6391231135528094e-11   9.4338381092227882e-11   6.0284177957826241e-11   6.8155616327174919e-11   3.9389037534461471e-11   4.6779887734873316e-11   2.4508823916145206e-11   3.1032692267039400e-11   1.6215403159652071e-11   2.1519229996891961e-11   1.4827516478431967e-11   1.8605142241096376e-11   2.0398531985688190e-11   2.2402458732377273e-11   3.2714395189759717e-11   3.2765292602517767e-11   5.1301856884251033e-11   4.9295447797168796e-11   7.5446662458444402e-11   7.1357723028326875e-11   1.0422100422725394e-10   9.8104323999426548e-11   1.3651918291901487e-10   1.2850744566104637e-10   1.7110010990732804e-10   1.6139877212444803e-10   2.0663502020995999e-10   1.9551437520539130e-10   2.4175856783518096e-10   2.2954328303176121e-10   2.7512134587073252e-10   2.6217784382550464e-10   3.0544181141906306e-10   2.9216392802712537e-10   3.3155556889460939e-10   3.1834898688452782e-10   3.5245984367519877e-10   3.3972599324057336e-10   3.6735025926764494e-10   3.5547125002379183e-10   3.7564787715734891e-10   3.6497422402821316e-10   3.7698595643585416e-10   3.6784663903111642e-10   3.6443953155182093e-10   3.6412178823061868e-10   3.3077168339663854e-10   3.1444355509759999e-10   3.1121259495290890e-10   3.0599883077356792e-10   2.8690948740456206e-10   2.8368645375749997e-10   2.5890219538296566e-10   2.5768109313395804e-10   2.2825655166794659e-10   2.2897067902452735e-10   1.9615079485073770e-10   1.9865542619738496e-10   1.6381912408959045e-10   1.6789776092191051e-10   1.3250413467943163e-10   1.3787887871856120e-10   1.0340926854565000e-10   1.0975216303480723e-10   7.7652640867720705e-11   8.4598446190006300e-11   5.6224087229144521e-11   6.3384366527384579e-11   3.9947124196005114e-11   4.6925189895068626e-11   2.9447299120699937e-11   3.5853466196191165e-11   2.5128148868511479e-11   3.0594713709537753e-11   2.7155691637986532e-11   3.1351062854965460e-11   3.5452047492703628e-11   3.8093486721167191e-11   4.9698432468713021e-11   5.0562916088375499e-11   6.9347411119152081e-11   6.8280195522059403e-11   9.3643936776474968e-11   9.0564497537874219e-11   1.2165437127979295e-10   1.1655948684161234e-10   1.5230236924737658e-10   1.4526622861401196e-10   1.8441024770021253e-10   1.7558157504162307e-10   2.1674424898980868e-10   2.0634055223071917e-10   2.4806194898984618e-10   2.3636111266615700e-10   2.7715996152232674e-10   2.6448952069421584e-10   3.0292002709212333e-10   2.8964460086072926e-10   3.2435149879132750e-10   3.1085909876373589e-10   3.4062805517092675e-10   3.2731648106494008e-10   3.5111616261193221e-10   3.3838164218246956e-10   3.5539741154751221e-10   3.4362471745977190e-10   3.5326702183940832e-10   3.4282782143821418e-10   3.3835989275327117e-10   3.3619698306238204e-10   2.9758394829854722e-10   2.8051684881197819e-10   2.7763657752774259e-10   2.7085933205101919e-10   2.5394990509424868e-10   2.4901117043580977e-10   2.2758524895285270e-10   2.2455376122818566e-10   1.9954052678345876e-10   1.9840564816455121e-10   1.7089163248435388e-10   1.7156930470162108e-10   1.4273912882967154e-10   1.4507293381188788e-10   1.1616484781709182e-10   1.1993331318315359e-10   9.2190030757541296e-11   9.7115964966052702e-11   7.1736035910384611e-11   7.7497540297588687e-11   5.5588924600873126e-11   6.1831902242055311e-11   4.4369251186376844e-11   5.0721067095016501e-11   3.8508213801635802e-11   4.4592035573108640e-11   3.8231082521595303e-11   4.3680369860885635e-11   4.3548541921237283e-11   4.8021135213510563e-11   5.4256280646529795e-11   5.7447549728964392e-11   6.9942843629563105e-11   7.1597392382217126e-11   9.0005445073257476e-11   8.9926922240016640e-11   1.1367313436730912e-10   1.1173177341481012e-10   1.4003642431021286e-10   1.3617402222347092e-10   1.6808224190418110e-10   1.6231438549076424e-10   1.9673285555253398e-10   1.8914831098292306e-10   2.2488727508608124e-10   2.1564456981227917e-10   2.5146351571835350e-10   2.4078486171978124e-10   2.7544006160869371e-10   2.6360290050912708e-10   2.9589485194184613e-10   2.8322146049209783e-10   3.1204013788840341e-10   2.9888593825312358e-10   3.2325168537886393e-10   3.0999312969048537e-10   3.2909135469774085e-10   3.1611416024540074e-10   3.2932754666123382e-10   3.1701130050315031e-10   3.2392488708172636e-10   3.1263912767917710e-10   3.0697148010819921e-10   3.0335061126383232e-10   2.6081398558554799e-10   2.4352333080844140e-10   2.4111711107100532e-10   2.3311079829133197e-10   2.1879161750939863e-10   2.1241348882977883e-10   1.9487014106868051e-10   1.9025044378167531e-10   1.7025887501742442e-10   1.6744026684368783e-10   1.4590117863827425e-10   1.4485719854467832e-10   1.2273212083129499e-10   1.2336644345967058e-10   1.0164175150703618e-10   1.0379243027280978e-10   8.3440466610832101e-11   8.6886683692228889e-11   6.8827714454088819e-11   7.3298582658845032e-11   5.8365065704363228e-11   6.3550194220307612e-11   5.2454615498339974e-11   5.8016108029995720e-11   5.1323524991948757e-11   5.6908995134186650e-11   5.5015289231591587e-11   6.0271415239611849e-11   6.3388064610103108e-11   6.7974172444532836e-11   7.6120119395117969e-11   7.9721276092634274e-11   9.2722197494900635e-11   9.5061313330709556e-11   1.1255632002775016e-10   1.1340479506343763e-10   1.3486030168997242e-10   1.3404680799183675e-10   1.5877703880547268e-10   1.5619410156558292e-10   1.8338744148028173e-10   1.7899556796954662e-10   2.0774573996617845e-10   2.0157494226929899e-10   2.3091579975614911e-10   2.2306446349061065e-10   2.5200703345721496e-10   2.4263819901049279e-10   2.7020850129618414e-10   2.5954374604247722e-10   2.8481985037036315e-10   2.7313108636808460e-10   2.9527787623402106e-10   2.8287748586228799e-10   3.0117777260267363e-10   2.8840750512461366e-10   3.0228865122279420e-10   2.8950741555714272e-10   2.9856627823256754e-10   2.8613396681150166e-10   2.9011951618880690e-10   2.7840871784407405e-10   2.7156020069659542e-10   2.6681112211726117e-10   2.2188752331208733e-10   2.0487918070431465e-10   2.0306328621402638e-10   1.9420319615709069e-10   1.8278419713920837e-10   1.7529929539930910e-10   1.6201211278988577e-10   1.5608615148728590e-10   1.4153474623736554e-10   1.3725992142259453e-10   1.2213711294644193e-10   1.1954121330165253e-10   1.0456359658849122e-10   1.0360872194168872e-10   8.9489083615274905e-11   9.0073504226453939e-11   7.7492700751836094e-11   7.9455073248548473e-11   6.9035401974500590e-11   7.2161180348657929e-11   6.4442184769369819e-11   6.8471987741575756e-11   6.3889571941689490e-11   6.8529214670679055e-11   6.7398816350266370e-11   7.2330646810128202e-11   7.4835079383461538e-11   7.9730199986229593e-11   8.5912610562512645e-11   9.0443523988937162e-11   1.0020572752929586e-10   1.0405892499376338e-10   1.1716517370846282e-10   1.2005318387958496e-10   1.3613922450020110e-10   1.3781166110671440e-10   1.5639873023597891e-10   1.5665191472771217e-10   1.7716513236419436e-10   1.7584992326476519e-10   1.9764037413019849e-10   1.9466790495629977e-10   2.1703755258812962e-10   2.1238266324819139e-10   2.3461112787776427e-10   2.2831336776486126e-10   2.4968551989916280e-10   2.4184770144257056e-10   2.6168098361545456e-10   2.5246536772059025e-10   2.7013576704520051e-10   2.5975805554902243e-10   2.7472373154265573e-10   2.6344510261244782e-10   2.7526686340172567e-10   2.6338427576507159e-10   2.7174226531580080e-10   2.5957728267954125e-10   2.6428486409724574e-10   2.5217018540847788e-10   2.5313492149230799e-10   2.4144133195154533e-10   2.3351262035865909e-10   2.2797576485366935e-10   1.8229862718410272e-10   1.6606800505568462e-10   1.6493709922060970e-10   1.5563073080740875e-10   1.4730749381821421e-10   1.3909455601143629e-10   1.3026885009517005e-10   1.2337290853867251e-10   1.1446715066637254e-10   1.0902278786540918e-10   1.0050832522827739e-10   9.6592281758501723e-11   8.8927920142998872e-11   8.6557166185124742e-11   8.0170524724337013e-11   7.9302098479008502e-11   7.4572478756067252e-11   7.5105361142733159e-11   7.2348827916286785e-11   7.4127962613275202e-11   7.3584996869885965e-11   7.6407332804447992e-11   7.8233476179261659e-11   8.1855818272829749e-11   8.6115634182826725e-11   9.0264014584436834e-11   9.6928575381039347e-11   1.0130879481442258e-10   1.1025677743155950e-10   1.1456571754809210e-10   1.2558805753052512e-10   1.2952533287810026e-10   1.4233325360856045e-10   1.4561275726965792e-10   1.5984886336070564e-10   1.6220976372857218e-10   1.7746177044247072e-10   1.7867853763032238e-10   1.9449510664502676e-10   1.9438618476599081e-10   2.1029425470758564e-10   2.0872904930284961e-10   2.2425199031634918e-10   2.2115590661248608e-10   2.3583179437868343e-10   2.3118913919614673e-10   2.4458843743867603e-10   2.3844308175894046e-10   2.5018504650472254e-10   2.4263883118760534e-10   2.5240600958039621e-10   2.4361495500911460e-10   2.5116525020370502e-10   2.4133369250864367e-10   2.4650958425730371e-10   2.3588241917977499e-10   2.3861680848817575e-10   2.2747032143480613e-10   2.2778891335266570e-10   2.1642074440461046e-10   2.1438730749496800e-10   2.0315361406942679e-10   1.9429718388652141e-10   1.8833526236893895e-10   1.4356639285617987e-10   1.2858096882916057e-10   1.2820266948137467e-10   1.1887510720892396e-10   1.1372313729629768e-10   1.0519024182187560e-10   1.0085778490471846e-10   9.3367520838176376e-11   9.0093668654217050e-11   8.3813431624325194e-11   8.1843554405830481e-11   7.6891546785154997e-11   7.6423811967779515e-11   7.2866221369733680e-11   7.4042358473358630e-11   7.1891360933620230e-11   7.4790530275397316e-11   7.4004017212877866e-11   7.8639490675133768e-11   7.9122787156892555e-11   8.5441290719390538e-11   8.7050850577230929e-11   9.4934529559500287e-11   9.7483484336044493e-11   1.0675438714814255e-10   1.1001974551107469e-10   1.2044663767390986e-10   1.2417786472285624e-10   1.3548510180284005e-10   1.3941375237324856e-10   1.5129186526149571e-10   1.5514190332816409e-10   1.6725948582313340e-10   1.7075789484164115e-10   1.8277433469381125e-10   1.8566161213255834e-10   1.9724017478450532e-10   1.9928030850365966e-10   2.1010106915890408e-10   2.1109061347593315e-10   2.2086273856813465e-10   2.2063864294513195e-10   2.2911154656107069e-10   2.2755743841207504e-10   2.3453038221306884e-10   2.3158106516157573e-10   2.3691083115770352e-10   2.3255482804821502e-10   2.3616117127332263e-10   2.3044121337851547e-10   2.3230989422989084e-10   2.2532133038703042e-10   2.2550462563941906e-10   2.1739179896165020e-10   2.1600645793060135e-10   2.0695720430049827e-10   2.0417957399737816e-10   1.9441840725928359e-10   1.9047624448994950e-10   1.8025747823928927e-10   1.7536524854305814e-10   1.6501557271952762e-10   1.5542273600584795e-10   1.4941265997760444e-10   1.0717800674299742e-10   9.3858663810800223e-11   9.4270846379439727e-11   8.5348516599771774e-11   8.3320965914776530e-11   7.4889018535887061e-11   7.4908133676161787e-11   6.7222887140968114e-11   6.9349764026232409e-11   6.2600411207863916e-11   6.6858878857620252e-11   6.1195796630728948e-11   6.7530700173084521e-11   6.3061669125019859e-11   7.1339138180812521e-11   6.8125719784261693e-11   7.8137693713124601e-11   7.6193031423993378e-11   8.7665030693515767e-11   8.6953421625614286e-11   9.9554985723255149e-11   9.9993292553048016e-11   1.1335062094243391e-10   1.1481148861703106e-10   1.2852177386788955e-10   1.3083853589489031e-10   1.4448542585647170e-10   1.4745851600253949e-10   1.6062810412448335e-10   1.6403272961807178e-10   1.7632945511446500e-10   1.7992423797326132e-10   1.9098608255392473e-10   1.9452233793066454e-10   2.0403473367923825e-10   2.0726602937436561e-10   2.1497394226687912e-10   2.1766557270862869e-10   2.2338329647202681e-10   2.2532130781944703e-10   2.2893959084911542e-10   2.2993901123992962e-10   2.3142924189189063e-10   2.3134120139323653e-10   2.3075649057642496e-10   2.2947395770357490e-10   2.2694707829271421e-10   2.2440899199295549e-10   2.2014725766225941e-10   2.1634089326976386e-10   2.1061817888987151e-10   2.0557965251473512e-10   1.9872586201973601e-10   1.9253875457460117e-10   1.8492709354933607e-10   1.7771929379168167e-10   1.6975144196959592e-10   1.6169072909347809e-10   1.5377940599298904e-10   1.4506931573431263e-10   1.3756881700262369e-10   1.2849245128276992e-10   1.1838374621397465e-10   1.1270377063619255e-10   7.4531273854502522e-11   6.3235501811655402e-11   6.4445108181608539e-11   5.6339233079471138e-11   5.7268911020222399e-11   4.9355196902100038e-11   5.3416683652915448e-11   4.5943618134025037e-11   5.3032098587758030e-11   4.6198831454320379e-11   5.6129605011246124e-11   5.0108092714407802e-11   6.2589815038986913e-11   5.7520150092770382e-11   7.2164274621609956e-11   6.8149729548227597e-11   8.4484940431546986e-11   8.1588126444205246e-11   9.9078283532413179e-11   9.7318800180622459e-11   1.1538346400925294e-10   1.1473717343397382e-10   1.3277387100752891e-10   1.3317383978860612e-10   1.5058119598882027e-10   1.5192027502320768e-10   1.6812111149797672e-10   1.7025605799196588e-10   1.8471956713391545e-10   1.8747655198927998e-10   1.9973869131637068e-10   2.0291998122885016e-10   2.1260130297146307e-10   2.1599286105770212e-10   2.2281309088599904e-10   2.2619280418982129e-10   2.2998160823644504e-10   2.3312782629458748e-10   2.3383135229739295e-10   2.3653140894919502e-10   2.3421434989988561e-10   2.3627274108685076e-10   2.3111584218496259e-10   2.3236174547381079e-10   2.2465485082850096e-10   2.2494869724675519e-10   2.1507960503001871e-10   2.1431844950201112e-10   2.0275800594135706e-10   2.0087948815832025e-10   1.8816349410034907e-10   1.8514823681899296e-10   1.7185685401008888e-10   1.6772921416986823e-10   1.5446461156242166e-10   1.4929180635514054e-10   1.3665455000174542e-10   1.3054456088766824e-10   1.1910843980343559e-10   1.1220824828656018e-10   1.0245097800652927e-10   9.4987775123462950e-11   8.4603766567847367e-11   7.9619404294683801e-11   4.6880559312484605e-11   3.7888366200475737e-11   3.9871382575880903e-11   3.2962018290318258e-11   3.6567923275937971e-11   2.9569955567705326e-11   3.7209137188896140e-11   3.0347402642925727e-11   4.1767531201818244e-11   3.5238947184232495e-11   5.0067814210193178e-11   4.4054481301210745e-11   6.1790790750915766e-11   5.6454565496090484e-11   7.6485832194213306e-11   7.1962402554070344e-11   9.3588151457648565e-11   8.9981903168562131e-11   1.1244048217948189e-10   1.0982052143255266e-10   1.3231832270939921e-10   1.3071583693420428e-10   1.5245777034008063e-10   1.5186483799967103e-10   1.7208487321397100e-10   1.7245477256224009e-10   1.9044537031680901e-10   1.9169437729570205e-10   2.0683367576059749e-10   2.0884428298941674e-10   2.2061999299679387e-10   2.2324542671080880e-10   2.3127451669208399e-10   2.3434437838603896e-10   2.3838779205921580e-10   2.4171460824344273e-10   2.4168644919309806e-10   2.4507287769833662e-10   2.4104370778909445e-10   2.4429012373795491e-10   2.3648424869323176e-10   2.3939641854087485e-10   2.2818326534912895e-10   2.3057981380109132e-10   2.1645973199443907e-10   2.1817911430440876e-10   2.0176414771891723e-10   2.0267085862008858e-10   1.8466122735163412e-10   1.8465100737814013e-10   1.6580820270467274e-10   1.6481204281363450e-10   1.4592956093463857e-10   1.4391635937514942e-10   1.2578915927386580e-10   1.2276696943001696e-10   1.0616055187092855e-10   1.0217667013236528e-10   8.7795850654689394e-11   8.2937056098360751e-11   7.1361607449561628e-11   6.5789171367898445e-11   5.5380994806300479e-11   5.1431074107006407e-11   2.5288390218917920e-11   1.8791371674275537e-11   2.1493908484950469e-11   1.6115235179241205e-11   2.2013421907924873e-11   1.6293603113730757e-11   2.6908245056605141e-11   2.1033566169173510e-11   3.5988856923585232e-11   3.0141917439076704e-11   4.8906355277281027e-11   4.3267578891604922e-11   6.5164226666021435e-11   5.9905842916124791e-11   8.4137631429300691e-11   7.9417193524300919e-11   1.0509740018966030e-10   1.0105176366868923e-10   1.2723804387533646e-10   1.2397812063607673e-10   1.4970870121410889e-10   1.4731520358916817e-10   1.7164583288300739e-10   1.7016617507803962e-10   1.9220640458532530e-10   1.9165288218911089e-10   2.1060028307503535e-10   2.1094960143451384e-10   2.2612059974082630e-10   2.2731476974673510e-10   2.3817091464587871e-10   2.4011948173877113e-10   2.4628813699651683e-10   2.4887165785953584e-10   2.5016032115614039e-10   2.5323495455111691e-10   2.4963865430636065e-10   2.5304168963698147e-10   2.4474317511779254e-10   2.4829928619895397e-10   2.3566200375597090e-10   2.3918998731157485e-10   2.2274411295798911e-10   2.2606385262359615e-10   2.0648591814733533e-10   2.0942530598378993e-10   1.8751220201850307e-10   1.8991375115737842e-10   1.6655210645198741e-10   1.6827900064558102e-10   1.4441111336244484e-10   1.4535246190837461e-10   1.2194008755514815e-10   1.2201518847896125e-10   1.0000255353268247e-10   9.9164026120562383e-11   7.9441316259872370e-11   7.7677178205001925e-11   6.1045124194409779e-11   5.8380638849533259e-11   4.5495646475327725e-11   4.2018800977027210e-11   3.1838468456881738e-11   2.9222118027626144e-11   1.0584530327677408e-11   6.6784315049535977e-12   1.0018880637715112e-11   6.4463023579804518e-12   1.4164680075623310e-11   1.0036339039059816e-11   2.2909819727100286e-11   1.8360026324803881e-11   3.5918104037958395e-11   3.1103609791617362e-11   5.2689818170175460e-11   4.7777617616404526e-11   7.2580436908460248e-11   6.7741342655449739e-11   9.4825570640589177e-11   9.0227607750353360e-11   1.1857034756873290e-10   1.1437228578369563e-10   1.4290226676778402e-10   1.3924751420488541e-10   1.6688626468753773e-10   1.6389735429089655e-10   1.8960064863386544e-10   1.8737452799089341e-10   2.1017251652115092e-10   2.0877682149147471e-10   2.2781130175224431e-10   2.2728175685840257e-10   2.41839154