<?xml version="1.0"?>
<VTKFile type="UnstructuredGrid"  version="0.1"  >
<UnstructuredGrid>
<Piece  NumberOfPoints="25" NumberOfCells="32">
<Points>
<DataArray  type="Float64"  NumberOfComponents="3"  format="ascii">0 0 0  0.25 0 0  0.5 0 0  0.75 0 0  1 0 0  0 0.25 0  0.25 0.25 0  0.5 0.25 0  0.75 0.25 0  1 0.25 0  0 0.5 0  0.25 0.5 0  0.5 0.5 0  0.75 0.5 0  1 0.5 0  0 0.75 0  0.25 0.75 0  0.5 0.75 0  0.75 0.75 0  1 0.75 0  0 1 0  0.25 1 0  0.5 1 0  0.75 1 0  1 1 0  </DataArray>
</Points>
<Cells>
<DataArray  type="UInt32"  Name="connectivity"  format="ascii">0 1 6  0 5 6  1 2 7  1 6 7  2 3 8  2 7 8  3 4 9  3 8 9  5 6 11  5 10 11  6 7 12  6 11 12  7 8 13  7 12 13  8 9 14  8 13 14  10 11 16  10 15 16  11 12 17  11 16 17  12 13 18  12 17 18  13 14 19  13 18 19  15 16 21  15 20 21  16 17 22  16 21 22  17 18 23  17 22 23  18 19 24  18 23 24  </DataArray>
<DataArray  type="UInt32"  Name="offsets"  format="ascii">3 6 9 12 15 18 21 24 27 30 33 36 39 42 45 48 51 54 57 60 63 66 69 72 75 78 81 84 87 90 93 96 </DataArray>
<DataArray  type="UInt8"  Name="types"  format="ascii">5 5 5 5 5 5 5 5 5 5 5 5 5 5 5 5 5 5 5 5 5 5 5 5 5 5 5 5 5 5 5 5 </DataArray>
</Cells>
<CellData  Scalars="f_36132"> 
<DataArray  type="Float64"  Name="f_36132"  format="ascii">2.5292624296929557e-03   1.4228295972570592e-03   6.9787770421349065e-04   3.4301096323708616e-04   5.7499574287922343e-04   5.4687472358365516e-04   2.4018399495961936e-03   1.4766153098409152e-03   2.7345053013377403e-03   2.2600606838304916e-06   2.9393358639922401e-03   1.3133386119251668e-03   1.6581645189233042e-03   2.7255595392672795e-03   1.3137101530133742e-03   1.3983591353574278e-03   1.3993936109875631e-03   1.2870084410210240e-03   2.7313241157373791e-03   1.6581966725858345e-03   1.3208861375546296e-03   2.9422649415449384e-03   1.2822218559759270e-06   2.7216821220131305e-03   1.4595017363090953e-03   2.4018399495961983e-03   5.5953148149362497e-04   5.8458388133975873e-04   3.4617167488677785e-04   7.1055894526320606e-04   1.4026081428738691e-03   2.5354078908309272e-03   </DataArray> 
</CellData> 
</Piece>
</UnstructuredGrid>
</VTKFile>