<?xml version="1.0"?>
<VTKFile type="UnstructuredGrid"  version="0.1"  >
<UnstructuredGrid>
<Piece  NumberOfPoints="1089" NumberOfCells="2048">
<Points>
<DataArray  type="Float64"  NumberOfComponents="3"  format="ascii">0 0 0  0.03125 0 0  0.0625 0 0  0.09375 0 0  0.125 0 0  0.15625 0 0  0.1875 0 0  0.21875 0 0  0.25 0 0  0.28125 0 0  0.3125 0 0  0.34375 0 0  0.375 0 0  0.40625 0 0  0.4375 0 0  0.46875 0 0  0.5 0 0  0.53125 0 0  0.5625 0 0  0.59375 0 0  0.625 0 0  0.65625 0 0  0.6875 0 0  0.71875 0 0  0.75 0 0  0.78125 0 0  0.8125 0 0  0.84375 0 0  0.875 0 0  0.90625 0 0  0.9375 0 0  0.96875 0 0  1 0 0  0 0.03125 0  0.03125 0.03125 0  0.0625 0.03125 0  0.09375 0.03125 0  0.125 0.03125 0  0.15625 0.03125 0  0.1875 0.03125 0  0.21875 0.03125 0  0.25 0.03125 0  0.28125 0.03125 0  0.3125 0.03125 0  0.34375 0.03125 0  0.375 0.03125 0  0.40625 0.03125 0  0.4375 0.03125 0  0.46875 0.03125 0  0.5 0.03125 0  0.53125 0.03125 0  0.5625 0.03125 0  0.59375 0.03125 0  0.625 0.03125 0  0.65625 0.03125 0  0.6875 0.03125 0  0.71875 0.03125 0  0.75 0.03125 0  0.78125 0.03125 0  0.8125 0.03125 0  0.84375 0.03125 0  0.875 0.03125 0  0.90625 0.03125 0  0.9375 0.03125 0  0.96875 0.03125 0  1 0.03125 0  0 0.0625 0  0.03125 0.0625 0  0.0625 0.0625 0  0.09375 0.0625 0  0.125 0.0625 0  0.15625 0.0625 0  0.1875 0.0625 0  0.21875 0.0625 0  0.25 0.0625 0  0.28125 0.0625 0  0.3125 0.0625 0  0.34375 0.0625 0  0.375 0.0625 0  0.40625 0.0625 0  0.4375 0.0625 0  0.46875 0.0625 0  0.5 0.0625 0  0.53125 0.0625 0  0.5625 0.0625 0  0.59375 0.0625 0  0.625 0.0625 0  0.65625 0.0625 0  0.6875 0.0625 0  0.71875 0.0625 0  0.75 0.0625 0  0.78125 0.0625 0  0.8125 0.0625 0  0.84375 0.0625 0  0.875 0.0625 0  0.90625 0.0625 0  0.9375 0.0625 0  0.96875 0.0625 0  1 0.0625 0  0 0.09375 0  0.03125 0.09375 0  0.0625 0.09375 0  0.09375 0.09375 0  0.125 0.09375 0  0.15625 0.09375 0  0.1875 0.09375 0  0.21875 0.09375 0  0.25 0.09375 0  0.28125 0.09375 0  0.3125 0.09375 0  0.34375 0.09375 0  0.375 0.09375 0  0.40625 0.09375 0  0.4375 0.09375 0  0.46875 0.09375 0  0.5 0.09375 0  0.53125 0.09375 0  0.5625 0.09375 0  0.59375 0.09375 0  0.625 0.09375 0  0.65625 0.09375 0  0.6875 0.09375 0  0.71875 0.09375 0  0.75 0.09375 0  0.78125 0.09375 0  0.8125 0.09375 0  0.84375 0.09375 0  0.875 0.09375 0  0.90625 0.09375 0  0.9375 0.09375 0  0.96875 0.09375 0  1 0.09375 0  0 0.125 0  0.03125 0.125 0  0.0625 0.125 0  0.09375 0.125 0  0.125 0.125 0  0.15625 0.125 0  0.1875 0.125 0  0.21875 0.125 0  0.25 0.125 0  0.28125 0.125 0  0.3125 0.125 0  0.34375 0.125 0  0.375 0.125 0  0.40625 0.125 0  0.4375 0.125 0  0.46875 0.125 0  0.5 0.125 0  0.53125 0.125 0  0.5625 0.125 0  0.59375 0.125 0  0.625 0.125 0  0.65625 0.125 0  0.6875 0.125 0  0.71875 0.125 0  0.75 0.125 0  0.78125 0.125 0  0.8125 0.125 0  0.84375 0.125 0  0.875 0.125 0  0.90625 0.125 0  0.9375 0.125 0  0.96875 0.125 0  1 0.125 0  0 0.15625 0  0.03125 0.15625 0  0.0625 0.15625 0  0.09375 0.15625 0  0.125 0.15625 0  0.15625 0.15625 0  0.1875 0.15625 0  0.21875 0.15625 0  0.25 0.15625 0  0.28125 0.15625 0  0.3125 0.15625 0  0.34375 0.15625 0  0.375 0.15625 0  0.40625 0.15625 0  0.4375 0.15625 0  0.46875 0.15625 0  0.5 0.15625 0  0.53125 0.15625 0  0.5625 0.15625 0  0.59375 0.15625 0  0.625 0.15625 0  0.65625 0.15625 0  0.6875 0.15625 0  0.71875 0.15625 0  0.75 0.15625 0  0.78125 0.15625 0  0.8125 0.15625 0  0.84375 0.15625 0  0.875 0.15625 0  0.90625 0.15625 0  0.9375 0.15625 0  0.96875 0.15625 0  1 0.15625 0  0 0.1875 0  0.03125 0.1875 0  0.0625 0.1875 0  0.09375 0.1875 0  0.125 0.1875 0  0.15625 0.1875 0  0.1875 0.1875 0  0.21875 0.1875 0  0.25 0.1875 0  0.28125 0.1875 0  0.3125 0.1875 0  0.34375 0.1875 0  0.375 0.1875 0  0.40625 0.1875 0  0.4375 0.1875 0  0.46875 0.1875 0  0.5 0.1875 0  0.53125 0.1875 0  0.5625 0.1875 0  0.59375 0.1875 0  0.625 0.1875 0  0.65625 0.1875 0  0.6875 0.1875 0  0.71875 0.1875 0  0.75 0.1875 0  0.78125 0.1875 0  0.8125 0.1875 0  0.84375 0.1875 0  0.875 0.1875 0  0.90625 0.1875 0  0.9375 0.1875 0  0.96875 0.1875 0  1 0.1875 0  0 0.21875 0  0.03125 0.21875 0  0.0625 0.21875 0  0.09375 0.21875 0  0.125 0.21875 0  0.15625 0.21875 0  0.1875 0.21875 0  0.21875 0.21875 0  0.25 0.21875 0  0.28125 0.21875 0  0.3125 0.21875 0  0.34375 0.21875 0  0.375 0.21875 0  0.40625 0.21875 0  0.4375 0.21875 0  0.46875 0.21875 0  0.5 0.21875 0  0.53125 0.21875 0  0.5625 0.21875 0  0.59375 0.21875 0  0.625 0.21875 0  0.65625 0.21875 0  0.6875 0.21875 0  0.71875 0.21875 0  0.75 0.21875 0  0.78125 0.21875 0  0.8125 0.21875 0  0.84375 0.21875 0  0.875 0.21875 0  0.90625 0.21875 0  0.9375 0.21875 0  0.96875 0.21875 0  1 0.21875 0  0 0.25 0  0.03125 0.25 0  0.0625 0.25 0  0.09375 0.25 0  0.125 0.25 0  0.15625 0.25 0  0.1875 0.25 0  0.21875 0.25 0  0.25 0.25 0  0.28125 0.25 0  0.3125 0.25 0  0.34375 0.25 0  0.375 0.25 0  0.40625 0.25 0  0.4375 0.25 0  0.46875 0.25 0  0.5 0.25 0  0.53125 0.25 0  0.5625 0.25 0  0.59375 0.25 0  0.625 0.25 0  0.65625 0.25 0  0.6875 0.25 0  0.71875 0.25 0  0.75 0.25 0  0.78125 0.25 0  0.8125 0.25 0  0.84375 0.25 0  0.875 0.25 0  0.90625 0.25 0  0.9375 0.25 0  0.96875 0.25 0  1 0.25 0  0 0.28125 0  0.03125 0.28125 0  0.0625 0.28125 0  0.09375 0.28125 0  0.125 0.28125 0  0.15625 0.28125 0  0.1875 0.28125 0  0.21875 0.28125 0  0.25 0.28125 0  0.28125 0.28125 0  0.3125 0.28125 0  0.34375 0.28125 0  0.375 0.28125 0  0.40625 0.28125 0  0.4375 0.28125 0  0.46875 0.28125 0  0.5 0.28125 0  0.53125 0.28125 0  0.5625 0.28125 0  0.59375 0.28125 0  0.625 0.28125 0  0.65625 0.28125 0  0.6875 0.28125 0  0.71875 0.28125 0  0.75 0.28125 0  0.78125 0.28125 0  0.8125 0.28125 0  0.84375 0.28125 0  0.875 0.28125 0  0.90625 0.28125 0  0.9375 0.28125 0  0.96875 0.28125 0  1 0.28125 0  0 0.3125 0  0.03125 0.3125 0  0.0625 0.3125 0  0.09375 0.3125 0  0.125 0.3125 0  0.15625 0.3125 0  0.1875 0.3125 0  0.21875 0.3125 0  0.25 0.3125 0  0.28125 0.3125 0  0.3125 0.3125 0  0.34375 0.3125 0  0.375 0.3125 0  0.40625 0.3125 0  0.4375 0.3125 0  0.46875 0.3125 0  0.5 0.3125 0  0.53125 0.3125 0  0.5625 0.3125 0  0.59375 0.3125 0  0.625 0.3125 0  0.65625 0.3125 0  0.6875 0.3125 0  0.71875 0.3125 0  0.75 0.3125 0  0.78125 0.3125 0  0.8125 0.3125 0  0.84375 0.3125 0  0.875 0.3125 0  0.90625 0.3125 0  0.9375 0.3125 0  0.96875 0.3125 0  1 0.3125 0  0 0.34375 0  0.03125 0.34375 0  0.0625 0.34375 0  0.09375 0.34375 0  0.125 0.34375 0  0.15625 0.34375 0  0.1875 0.34375 0  0.21875 0.34375 0  0.25 0.34375 0  0.28125 0.34375 0  0.3125 0.34375 0  0.34375 0.34375 0  0.375 0.34375 0  0.40625 0.34375 0  0.4375 0.34375 0  0.46875 0.34375 0  0.5 0.34375 0  0.53125 0.34375 0  0.5625 0.34375 0  0.59375 0.34375 0  0.625 0.34375 0  0.65625 0.34375 0  0.6875 0.34375 0  0.71875 0.34375 0  0.75 0.34375 0  0.78125 0.34375 0  0.8125 0.34375 0  0.84375 0.34375 0  0.875 0.34375 0  0.90625 0.34375 0  0.9375 0.34375 0  0.96875 0.34375 0  1 0.34375 0  0 0.375 0  0.03125 0.375 0  0.0625 0.375 0  0.09375 0.375 0  0.125 0.375 0  0.15625 0.375 0  0.1875 0.375 0  0.21875 0.375 0  0.25 0.375 0  0.28125 0.375 0  0.3125 0.375 0  0.34375 0.375 0  0.375 0.375 0  0.40625 0.375 0  0.4375 0.375 0  0.46875 0.375 0  0.5 0.375 0  0.53125 0.375 0  0.5625 0.375 0  0.59375 0.375 0  0.625 0.375 0  0.65625 0.375 0  0.6875 0.375 0  0.71875 0.375 0  0.75 0.375 0  0.78125 0.375 0  0.8125 0.375 0  0.84375 0.375 0  0.875 0.375 0  0.90625 0.375 0  0.9375 0.375 0  0.96875 0.375 0  1 0.375 0  0 0.40625 0  0.03125 0.40625 0  0.0625 0.40625 0  0.09375 0.40625 0  0.125 0.40625 0  0.15625 0.40625 0  0.1875 0.40625 0  0.21875 0.40625 0  0.25 0.40625 0  0.28125 0.40625 0  0.3125 0.40625 0  0.34375 0.40625 0  0.375 0.40625 0  0.40625 0.40625 0  0.4375 0.40625 0  0.46875 0.40625 0  0.5 0.40625 0  0.53125 0.40625 0  0.5625 0.40625 0  0.59375 0.40625 0  0.625 0.40625 0  0.65625 0.40625 0  0.6875 0.40625 0  0.71875 0.40625 0  0.75 0.40625 0  0.78125 0.40625 0  0.8125 0.40625 0  0.84375 0.40625 0  0.875 0.40625 0  0.90625 0.40625 0  0.9375 0.40625 0  0.96875 0.40625 0  1 0.40625 0  0 0.4375 0  0.03125 0.4375 0  0.0625 0.4375 0  0.09375 0.4375 0  0.125 0.4375 0  0.15625 0.4375 0  0.1875 0.4375 0  0.21875 0.4375 0  0.25 0.4375 0  0.28125 0.4375 0  0.3125 0.4375 0  0.34375 0.4375 0  0.375 0.4375 0  0.40625 0.4375 0  0.4375 0.4375 0  0.46875 0.4375 0  0.5 0.4375 0  0.53125 0.4375 0  0.5625 0.4375 0  0.59375 0.4375 0  0.625 0.4375 0  0.65625 0.4375 0  0.6875 0.4375 0  0.71875 0.4375 0  0.75 0.4375 0  0.78125 0.4375 0  0.8125 0.4375 0  0.84375 0.4375 0  0.875 0.4375 0  0.90625 0.4375 0  0.9375 0.4375 0  0.96875 0.4375 0  1 0.4375 0  0 0.46875 0  0.03125 0.46875 0  0.0625 0.46875 0  0.09375 0.46875 0  0.125 0.46875 0  0.15625 0.46875 0  0.1875 0.46875 0  0.21875 0.46875 0  0.25 0.46875 0  0.28125 0.46875 0  0.3125 0.46875 0  0.34375 0.46875 0  0.375 0.46875 0  0.40625 0.46875 0  0.4375 0.46875 0  0.46875 0.46875 0  0.5 0.46875 0  0.53125 0.46875 0  0.5625 0.46875 0  0.59375 0.46875 0  0.625 0.46875 0  0.65625 0.46875 0  0.6875 0.46875 0  0.71875 0.46875 0  0.75 0.46875 0  0.78125 0.46875 0  0.8125 0.46875 0  0.84375 0.46875 0  0.875 0.46875 0  0.90625 0.46875 0  0.9375 0.46875 0  0.96875 0.46875 0  1 0.46875 0  0 0.5 0  0.03125 0.5 0  0.0625 0.5 0  0.09375 0.5 0  0.125 0.5 0  0.15625 0.5 0  0.1875 0.5 0  0.21875 0.5 0  0.25 0.5 0  0.28125 0.5 0  0.3125 0.5 0  0.34375 0.5 0  0.375 0.5 0  0.40625 0.5 0  0.4375 0.5 0  0.46875 0.5 0  0.5 0.5 0  0.53125 0.5 0  0.5625 0.5 0  0.59375 0.5 0  0.625 0.5 0  0.65625 0.5 0  0.6875 0.5 0  0.71875 0.5 0  0.75 0.5 0  0.78125 0.5 0  0.8125 0.5 0  0.84375 0.5 0  0.875 0.5 0  0.90625 0.5 0  0.9375 0.5 0  0.96875 0.5 0  1 0.5 0  0 0.53125 0  0.03125 0.53125 0  0.0625 0.53125 0  0.09375 0.53125 0  0.125 0.53125 0  0.15625 0.53125 0  0.1875 0.53125 0  0.21875 0.53125 0  0.25 0.53125 0  0.28125 0.53125 0  0.3125 0.53125 0  0.34375 0.53125 0  0.375 0.53125 0  0.40625 0.53125 0  0.4375 0.53125 0  0.46875 0.53125 0  0.5 0.53125 0  0.53125 0.53125 0  0.5625 0.53125 0  0.59375 0.53125 0  0.625 0.53125 0  0.65625 0.53125 0  0.6875 0.53125 0  0.71875 0.53125 0  0.75 0.53125 0  0.78125 0.531
[...]
<CellData  Scalars="f_35700"> 
<DataArray  type="Float64"  Name="f_35700"  format="ascii">9.2552497009965670e-08   9.2111912426337473e-08   8.8998077230842632e-08   9.1906590398636190e-08   8.3424927830269180e-08   8.6406219925263243e-08   7.6447909691734629e-08   7.9654533918340331e-08   6.8387850777857687e-08   7.1806653002326496e-08   5.9571481787006173e-08   6.3127953772640779e-08   5.0344819216555339e-08   5.3944239006470726e-08   4.1066123334455421e-08   4.4607682473393310e-08   3.2094132327657727e-08   3.5477558972215609e-08   2.3775023170415958e-08   2.6905356122868127e-08   1.6429439048316316e-08   1.9221078565232327e-08   1.0340337395265210e-08   1.2720537426637739e-08   5.7422147780293964e-09   7.6539848744294257e-09   2.8121583212703347e-09   4.2165060091163587e-09   1.6630833045514484e-09   2.5405315762582586e-09   2.3394242747947019e-09   2.6907572752499796e-09   4.8154489183393382e-09   4.6616637686393101e-09   8.9962612070663712e-09   8.3777316123420239e-09   1.4721455859118340e-08   1.3696341510319550e-08   2.1771283486878705e-08   2.0413246559467721e-08   2.9875088633622066e-08   2.8270403287611169e-08   3.8721694767596268e-08   3.6965855726661755e-08   4.7971334324418298e-08   4.6165284058595113e-08   5.7268659992580559e-08   5.5514757435690127e-08   6.6256323172397517e-08   6.4654166418461591e-08   7.4588541993755845e-08   7.3230741424401162e-08   8.1943852667055243e-08   8.0911949904520217e-08   8.8034971917835645e-08   8.7396788928073404e-08   9.2606530356400686e-08   9.2423696098403010e-08   9.5372076425455649e-08   9.5770941771747576e-08   9.5532015695062928e-08   9.7236508990204307e-08   8.3501764477668593e-08   9.6717489665064931e-08   9.0741404945859565e-08   8.6856069505597016e-08   8.6088483368315603e-08   8.5421313222651509e-08   7.9936607109083643e-08   7.9884249607449207e-08   7.2689018650230701e-08   7.3078771156509764e-08   6.4555547311293777e-08   6.5363267812396569e-08   5.5838983793681756e-08   5.7038212172053064e-08   4.6872863616806750e-08   4.8409219695148942e-08   3.8001834692415869e-08   3.9799850836994830e-08   2.9567204143753732e-08   3.1537386407023925e-08   2.1893544794004318e-08   2.3937841021378881e-08   1.5276151945476148e-08   1.7292674245019719e-08   9.9696823569393403e-09   1.1857095442481027e-08   6.1783719868865240e-09   7.8400332327034955e-09   4.0481959114945767e-09   5.3959988695069525e-09   3.6612671649369786e-09   4.6190927247646043e-09   5.0326876417343638e-09   5.5393565474738611e-09   8.1099706038230700e-09   8.1215983906345942e-09   1.2775055401894616e-08   1.2266728072200160e-08   1.8848834781430853e-08   1.7815546985023174e-08   2.6098017267323686e-08   2.4554842387624743e-08   3.4244054731618054e-08   3.2225547135869403e-08   4.2973780257681658e-08   4.0532644406477329e-08   5.1951322790755645e-08   4.9156425622891585e-08   6.0830783781356558e-08   5.7764649281257851e-08   6.9269044196255427e-08   6.6025097187365228e-08   7.6937809572577827e-08   7.3617978068844526e-08   8.3533249366625348e-08   8.0247583411916769e-08   8.8779308994863962e-08   8.5652593024810216e-08   9.2414657342093735e-08   8.9614763303587050e-08   9.4148051291897735e-08   9.1968457962541848e-08   9.3695699750094223e-08   9.2627202460512243e-08   9.1241617493536271e-08   9.1747739934776496e-08   8.3617023725133634e-08   7.9616762417463445e-08   7.8856017704412620e-08   7.7540575020560851e-08   7.2690001003981361e-08   7.1968594341902464e-08   6.5592700491815964e-08   6.5402197474941504e-08   5.7840200679303335e-08   5.8124220001825127e-08   4.9720450948907448e-08   5.0435962311612493e-08   4.1539656148909315e-08   4.2635578799162242e-08   3.3609631942922033e-08   3.5019847113685572e-08   2.6234033023710619e-08   2.7878516145861729e-08   1.9695873006282198e-08   2.1484155924769706e-08   1.4246296741198226e-08   1.6081455801403242e-08   1.0094768226423803e-08   1.1877512618611682e-08   7.4009429944861799e-09   9.0336598996683345e-09   6.2684921527319484e-09   7.6591371431353050e-09   6.7410950528843783e-09   7.8068114118617430e-09   8.8007443984610604e-09   9.4710939593819009e-09   1.2368422941636791e-08   1.2588118651877394e-08   1.7307121272495468e-08   1.7038166993313076e-08   2.3427076141088329e-08   2.2650240789353204e-08   3.0493021867878525e-08   2.9208602000874561e-08   3.8233166325808539e-08   3.6461023738139241e-08   4.6349528871948636e-08   4.4128429690136701e-08   5.4529208783733346e-08   5.1915544192912561e-08   6.2456081852593973e-08   5.9522134133913432e-08   6.9822332657696256e-08   6.6654401081621506e-08   7.6339097566051963e-08   7.3036088798591763e-08   8.1745371211655366e-08   7.8418946208681136e-08   8.5814891003837648e-08   8.2592456847014077e-08   8.8366001607172542e-08   8.5393588038469528e-08   8.9307579240419571e-08   8.6719592756457333e-08   8.8819882921467151e-08   8.6546339063801088e-08   8.5628889471065343e-08   8.4989213902715146e-08   7.5343706868384459e-08   7.1151912107295291e-08   7.0420104732211912e-08   6.8716652055680850e-08   6.4452977657653914e-08   6.3228054796312640e-08   5.7773848612568480e-08   5.7059090364528435e-08   5.0664172868420011e-08   5.0438142930628346e-08   4.3399609767400974e-08   4.3628280954795631e-08   3.6256884563442976e-08   3.6896471692490346e-08   2.9508220896191781e-08   3.0502435751043535e-08   2.3411528392288169e-08   2.4691121498294347e-08   1.8200291401343607e-08   1.9684810973723284e-08   1.4074360988747718e-08   1.5675077804575015e-08   1.1192115947419580e-08   1.2815489399919083e-08   9.6642781570750427e-09   1.1215646948509179e-08   9.5495962335018420e-09   1.0936899881545384e-08   1.0852547023829162e-08   1.1989926257686280e-08   1.3523132987567908e-08   1.4334274264899108e-08   1.7458776400252286e-08   1.7879878776588581e-08   2.2508232283929858e-08   2.2490490346167105e-08   2.8477364583955910e-08   2.7988881017415390e-08   3.5136557479933811e-08   3.4163623592741464e-08   4.2229468379777086e-08   4.0777181008458924e-08   4.9482773054870382e-08   4.7574992750077524e-08   5.6616508285021894e-08   5.4295208562644339e-08   6.3354587321717299e-08   6.0678699607991372e-08   6.9435065055393503e-08   6.6478980013742398e-08   7.4619830414227058e-08   7.1471711087454580e-08   7.8703842217572321e-08   7.5463565223903369e-08   8.1525499137905164e-08   7.8300443521533907e-08   8.2983439550889027e-08   7.9875353144573531e-08   8.3068646856260697e-08   8.0136186391037138e-08   8.1873818390301027e-08   7.9087866687899018e-08   7.7836616429446307e-08   7.6831406093813927e-08   6.6149992032645130e-08   6.1858672974601456e-08   6.1226078521474881e-08   5.9219038562750321e-08   5.5606354726423756e-08   5.3999995894969045e-08   4.9551312828501082e-08   4.8401718184452001e-08   4.3306006571036949e-08   4.2623078593745422e-08   3.7116546534985124e-08   3.6886719971651708e-08   3.1221715541999699e-08   3.1415691177292009e-08   2.5847347188183154e-08   2.6421838823101432e-08   2.1199084804943470e-08   2.2097463250577275e-08   1.7454872927335845e-08   1.8608532564304435e-08   1.4758156767541758e-08   1.6088755006684126e-08   1.3212318200225258e-08   1.4634641728541338e-08   1.2876642747580442e-08   1.4301853142703804e-08   1.3763990832882337e-08   1.5103053078574419e-08   1.5840263388002933e-08   1.7007394915951063e-08   1.9025678867447412e-08   1.9941676065149751e-08   2.3197808627412721e-08   2.3793121639749009e-08   2.8196250256864998e-08   2.8413691045362263e-08   3.3828755593393176e-08   3.3625741166361995e-08   3.9878574125014836e-08   3.9228827504680899e-08   4.6112725672014856e-08   4.5007381506118643e-08   5.2290881456807052e-08   5.0738970231246697e-08   5.8174514295599338e-08   5.6202825587392194e-08   6.3535986295713015e-08   6.1188327202269231e-08   6.8167299500958145e-08   6.5503139479810378e-08   7.1888394295795289e-08   6.8980744131773271e-08   7.4555229732309870e-08   7.1487175252616284e-08   7.6068404832405045e-08   7.2926826094178886e-08   7.6382822702991877e-08   7.3247110352038562e-08   7.5514098876553073e-08   7.2441216689379412e-08   7.3507232717775884e-08   7.0544360391918328e-08   6.8918862120077600e-08   6.7674879972273320e-08   5.6373954636384209e-08   5.2117166051148901e-08   5.1637629462917918e-08   4.9407166329085952e-08   4.6522108570122305e-08   4.4629801154839670e-08   4.1261290400693179e-08   3.9766914130307039e-08   3.6058596386392465e-08   3.4989404712232305e-08   3.1117790869143790e-08   3.0479003973403800e-08   2.6630479859832758e-08   2.6409525646633674e-08   2.2769448231422915e-08   2.2938306255637394e-08   1.9682846746974883e-08   2.0199332264624889e-08   1.7488943657937914e-08   1.8298055150076878e-08   1.6271751094930250e-08   1.7307513029074160e-08   1.6077838039784481e-08   1.7265670329983391e-08   1.6914531945274296e-08   1.8174036070275855e-08   1.8749612603073781e-08   1.9997632584127986e-08   2.1512522694685342e-08   2.2666339093160675e-08   2.5097052060311012e-08   2.6077573482703450e-08   2.9365392582303164e-08   3.0100216969973428e-08   3.4153406726700871e-08   3.4579634317170731e-08   3.9276905980634853e-08   3.9343598121854857e-08   4.4538697202502713e-08   4.4208890407397788e-08   4.9736127144744153e-08   4.8988329215058400e-08   5.4668840614531760e-08   5.3497953197241226e-08   5.9146469662033798e-08   5.7564094336944653e-08   6.2995996152943911e-08   6.1030078683595468e-08   6.6068587258330535e-08   6.3762317500784934e-08   6.8245797002096770e-08   6.5655583628967953e-08   6.9445114168929883e-08   6.6637297946241491e-08   6.9624691563671383e-08   6.6670642657263064e-08   6.8786022854582769e-08   6.5756193793625609e-08   6.6970933099353027e-08   6.3931557970441691e-08   6.4233765952468603e-08   6.1266391830415196e-08   5.9320253243590181e-08   5.7903882093937319e-08   4.6397249945682367e-08   4.2310886895159822e-08   4.2014716504780025e-08   3.9659745125340482e-08   3.7555953286619747e-08   3.5473715253662845e-08   3.3232629967221306e-08   3.1485346797357950e-08   2.9208272813272090e-08   2.7833146963385544e-08   2.5638845556200918e-08   2.4655487673884478e-08   2.2662699166260771e-08   2.2074097264170125e-08   2.0394790988394945e-08   2.0188512375022421e-08   1.8922424160306850e-08   1.9071616516317033e-08   1.8302122398200677e-08   1.8766616863658482e-08   1.8557604352261186e-08   1.9285374868499979e-08   1.9678940129690334e-08   2.0608004399857655e-08   2.1622953790941164e-08   2.2683685343065488e-08   2.4314879949459570e-08   2.5432644924194753e-08   2.7651223901574218e-08   2.8749233507840377e-08   3.1503721592072644e-08   3.2505983356659023e-08   3.5724249840582672e-08   3.6558499811004287e-08   4.0150499167963923e-08   4.0751000435882379e-08   4.4612191988903548e-08   4.4922291493002696e-08   4.8937608815013009e-08   4.8911953814843137e-08   5.2960175523287127e-08   5.2566502438295230e-08   5.6524866936490527e-08   5.5745286463449298e-08   5.9494197220409702e-08   5.8325907471366141e-08   6.1753596614449428e-08   6.0208955739396224e-08   6.3216013323365663e-08   6.1321891393547812e-08   6.3825611166428458e-08   6.1621927583509609e-08   6.3560401603076626e-08   6.1097794275176086e-08   6.2433430522114919e-08   5.9770257331455167e-08   6.0491574422529111e-08   5.7691225397481936e-08   5.7810707792714441e-08   5.4941337424468182e-08   5.4473526742539267e-08   5.1624561219111995e-08   4.9419249131702735e-08   4.7905879755099250e-08   3.6610307367967845e-08   3.2820861515714003e-08   3.2724239564723162e-08   3.0353351518303494e-08   2.9052282510879976e-08   2.6882958407654805e-08   2.5777471627630941e-08   2.3874379279990434e-08   2.3022741871573610e-08   2.1429797046613287e-08   2.0894030645618010e-08   1.9641633998140757e-08   1.9473647660522608e-08   1.8578076450299530e-08   1.8816618362144714e-08   1.8280023820301100e-08   1.8948438475135448e-08   1.8759160998403837e-08   1.9864136853187742e-08   1.9997317641315695e-08   2.1528535515258683e-08   2.1947096649546612e-08   2.3877650619437452e-08   2.4533690556563727e-08   2.6821176153211934e-08   2.7657772430135065e-08   3.0245961779590161e-08   3.1199329051541554e-08   3.4020358299686753e-08   3.5022282617142215e-08   3.7999268644649533e-08   3.8979723437699977e-08   4.2029713276947128e-08   4.2919554569142560e-08   4.5956698074896581e-08   4.6690333572523228e-08   4.9629160987080738e-08   5.0147088711213438e-08   5.2905771431146170e-08   5.3156887720529402e-08   5.5660363761449860e-08   5.5603946971550697e-08   5.7786803026862359e-08   5.7394087017670301e-08   5.9203106830073069e-08   5.8458366256436595e-08   5.9854678762040985e-08   5.8755756202386362e-08   5.9716539695217750e-08   5.8274757109637486e-08   5.8794457809822731e-08   5.7033887352047129e-08   5.7124850155642002e-08   5.5081008759752804e-08   5.4773234895800894e-08   5.2491469644747163e-08   5.1830865422895647e-08   4.9365066930667478e-08   4.8409414814213948e-08   4.5821974939942651e-08   4.4621145783565665e-08   4.1996800668203141e-08   3.9593904866495627e-08   3.8069626177756286e-08   2.7394057781948886e-08   2.4013899044753634e-08   2.4123531294178315e-08   2.1847150802276443e-08   2.1337447945353307e-08   1.9188079983388561e-08   1.9183349474311910e-08   1.7226332298336523e-08   1.7741823340485894e-08   1.6025541751432795e-08   1.7068013978133724e-08   1.5630800248503160e-08   1.7187932028478637e-08   1.6056873851695737e-08   1.8097210922264869e-08   1.7287332914637752e-08   1.9761116901263254e-08   1.9275009077255921e-08   2.2115845029700930e-08   2.1943693497157990e-08   2.5070981558767783e-08   2.5191000340475733e-08   2.8512998875905744e-08   2.8892275558535021e-08   3.2309633865582051e-08   3.2905383038031001e-08   3.6314978613671060e-08   3.7076170720130844e-08   4.0375089270886564e-08   4.1244399566016896e-08   4.4333899806611426e-08   4.5249904964555983e-08   4.8039215430684176e-08   4.8938753539296246e-08   5.1348557112340312e-08   5.2169159403105061e-08   5.4134634367881686e-08   5.4816933435320661e-08   5.6290238219607413e-08   5.6780257209660721e-08   5.7732369344145833e-08   5.7983599259476909e-08   5.8405446822413897e-08   5.8380624446432981e-08   5.8283478637471431e-08   5.7955985817825033e-08   5.7371112862775280e-08   5.6725930584814382e-08   5.5703523018353520e-08   5.4737695308478284e-08   5.3345105118342265e-08   5.2067707250669054e-08   5.0386972287314625e-08   4.8818646916525054e-08   4.6943234142167685e-08   4.5115462032600305e-08   4.3146045428497854e-08   4.1100465589154954e-08   3.9139552980978596e-08   3.6927790994619429e-08   3.5060959304056382e-08   3.2756818880497010e-08   3.0219120731127658e-08   2.8774858380188838e-08   1.9105740712404226e-08   1.6229593386099018e-08   1.6544303965932742e-08   1.4469117721051563e-08   1.4708115187199564e-08   1.2685442917945461e-08   1.3704100786955126e-08   1.1796926780228484e-08   1.3569451433639997e-08   1.1828230044487681e-08   1.4309142851146037e-08   1.2777467324745403e-08   1.5894732423975193e-08   1.4607935692986445e-08   1.8265400417737727e-08   1.7249256721392286e-08   2.1330187200581151e-08   2.0599998517382592e-08   2.4971440346482831e-08   2.4531519767073136e-08   2.9049321628169928e-08   2.8892871889744386e-08   3.3407181968035095e-08   3.3516575255232238e-08   3.7877586505121213e-08   3.8225044266952995e-08   4.2288753392317385e-08   4.2837408926515521e-08   4.6471157633718962e-08   4.7176466404607126e-08   5.0264046494691965e-08   5.1075492987975931e-08   5.3521616966638702e-08   5.4384653549438740e-08   5.6118618939567444e-08   5.6976761989910334e-08   5.7955169942930328e-08   5.8752171467573378e-08   5.8960597820881329e-08   5.9642606879921013e-08   5.9096165262057778e-08   5.9613792795816154e-08   5.8356572999691373e-08   5.8666776301814343e-08   5.6770184455096102e-08   5.6837894120501668e-08   5.4397960774247680e-08   5.4197384760734731e-08   5.1331138355276663e-08   5.0846697064083553e-08   4.7687718674433844e-08   4.6914594164476676e-08   4.3607873602633996e-08   4.2552195184062320e-08   3.9248405544790967e-08   3.7927136855591424e-08   3.4776413365394055e-08   3.3217080111048989e-08   3.0362298995015459e-08   2.8602894456311936e-08   2.6161822429191263e-08   2.4261549213145933e-08   2.1653406589936682e-08   2.0379424608417181e-08   1.2065821305135711e-08   9.7677553924964908e-09   1.0279040161453485e-08   8.5035530991237686e-09   9.4195855648549085e-09   7.6255669440507301e-09   9.5506757318068645e-09   7.7951960448837044e-09   1.0666521940316553e-08   8.9994059159918832e-09   1.2724186168895210e-08   1.1191534353412899e-08   1.5644574978743552e-08   1.4287264845560120e-08   1.9315518728214419e-08   1.8167643505312622e-08   2.3596038129206578e-08   2.2683611922471966e-08   2.8321730624851196e-08   2.7661716340273704e-08   3.3311071968935215e-08   3.2910753546200421e-08   3.8372385977113658e-08   3.8229102984958608e-08   4.3311209565254911e-08   4.3412465174234642e-08   4.7937766854224661e-08   4.8261708190711564e-08   5.2074263596775933e-08   5.2590519043887377e-08   5.5561721142467843e-08   5.6232564463681226e-08   5.8266087412596311e-08   5.9047884972340497e-08   6.0083390425535782e-08   6.0928276015863878e-08   6.0943736854275610e-08   6.1801449160521875e-08   6.0814002545074488e-08   6.1633813427208920e-08   5.9699112111897506e-08   6.0431769938506911e-08   5.7641858560941477e-08   5.8241470157403593e-08   5.4721269009215262e-08   5.5147046857202331e-08   5.1049576489961968e-08   5.1267385238954525e-08   4.6767908324343192e-08   4.6751557001420006e-08   4.2040847380316119e-08   4.1773090573777970e-08   3.7050064330554751e-08   3.6523294699709787e-08   3.1987257274728175e-08   3.1203890044954484e-08   2.7046633269061941e-08   2.6019238761128923e-08   2.2417067619340072e-08   2.1168533871215112e-08   1.8265917574513278e-08   1.6838374418284604e-08   1.4224894902165347e-08   1.3206194848938030e-08   6.5461037548926181e-09   4.8771290540396608e-09   5.5695198522564126e-09   4.1802625567973503e-09   5.6757161601671080e-09   4.2034279680671735e-09   6.8830989470350691e-09   5.3753166532985500e-09   9.1449846872752195e-09   7.6480443896761467e-09   1.2374507642099541e-08   1.0934152224773091e-08   1.6447578497413865e-08   1.5107385687399064e-08   2.1207716947949011e-08   2.0007419306942948e-08   2.6472054370325201e-08   2.5446006062822938e-08   3.2038348795127725e-08   3.1214209556750416e-08   3.7692747752092837e-08   3.7090427802878116e-08   4.3218001194481386e-08   4.2848902822464681e-08   4.8401807894821203e-08   4.8268391226042728e-08   5.3044973483565615e-08   5.3140663338021634e-08   5.6969065863066655e-08   5.7278504131066901e-08   6.0023273398911019e-08   6.0522908046237797e-08   6.2090202184374377e-08   6.2749190742553805e-08   6.3090389614167972e-08   6.3871782547620771e-08   6.2985360916404787e-08   6.3847519174892987e-08   6.1779111289386377e-08   6.2677303129129630e-08   5.9517956681495740e-08   6.0406071895021809e-08   5.6288758661290504e-08   5.7121074077594163e-08   5.2215590769233478e-08   5.2948519608647941e-08   4.7454972819403819e-08   4.8048732439295271e-08   4.2189853707915858e-08   4.2609991387550187e-08   3.6622570886145883e-08   3.6841294862506122e-08   3.0967054848924020e-08   3.0964326397122672e-08   2.5440577397527448e-08   2.5204929672191901e-08   2.0255335117689500e-08   1.9784427603742871e-08   1.5610060516797547e-08   1.4911157909268624e-08   1.1676544882563310e-08   1.0773016974400172e-08   8.2184753760517354e-09   7.5309151338366360e-09   2.7595472914224865e-09   1.7459595496733506e-09   2.5975038306921025e-09   1.6658008163500657e-09   3.6209498311362267e-09   2.5509579114889558e-09   5.8042778160196978e-09   4.6306228361222767e-09   9.0636232434479693e-09   7.8263144186540687e-09   1.3273843315088254e-08   1.2015372834230549e-08   1.8273191502006460e-08   1.7036904838264368e-08   2.3869586963459643e-08   2.2697995741953058e-08   2.9847999889488283e-08   2.8781136641904158e-08   3.5978715185148372e-08   3.5052589305413691e-08   4.2026159306889059e-08   4.1271371555567053e-08   4.7757952048046780e-08   4.7198519009643278e-08   5.2953835860207072e-08   5.2606268264635666e-08   5.7414139734236563e-08   5.7286809349089043e-08   6.09674524