<?xml version="1.0"?>
<VTKFile type="UnstructuredGrid"  version="0.1"  >
<UnstructuredGrid>
<Piece  NumberOfPoints="25" NumberOfCells="32">
<Points>
<DataArray  type="Float64"  NumberOfComponents="3"  format="ascii">0 0 0  0.25 0 0  0.5 0 0  0.75 0 0  1 0 0  0 0.25 0  0.25 0.25 0  0.5 0.25 0  0.75 0.25 0  1 0.25 0  0 0.5 0  0.25 0.5 0  0.5 0.5 0  0.75 0.5 0  1 0.5 0  0 0.75 0  0.25 0.75 0  0.5 0.75 0  0.75 0.75 0  1 0.75 0  0 1 0  0.25 1 0  0.5 1 0  0.75 1 0  1 1 0  </DataArray>
</Points>
<Cells>
<DataArray  type="UInt32"  Name="connectivity"  format="ascii">0 1 6  0 5 6  1 2 7  1 6 7  2 3 8  2 7 8  3 4 9  3 8 9  5 6 11  5 10 11  6 7 12  6 11 12  7 8 13  7 12 13  8 9 14  8 13 14  10 11 16  10 15 16  11 12 17  11 16 17  12 13 18  12 17 18  13 14 19  13 18 19  15 16 21  15 20 21  16 17 22  16 21 22  17 18 23  17 22 23  18 19 24  18 23 24  </DataArray>
<DataArray  type="UInt32"  Name="offsets"  format="ascii">3 6 9 12 15 18 21 24 27 30 33 36 39 42 45 48 51 54 57 60 63 66 69 72 75 78 81 84 87 90 93 96 </DataArray>
<DataArray  type="UInt8"  Name="types"  format="ascii">5 5 5 5 5 5 5 5 5 5 5 5 5 5 5 5 5 5 5 5 5 5 5 5 5 5 5 5 5 5 5 5 </DataArray>
</Cells>
<CellData  Scalars="f_42039"> 
<DataArray  type="Float64"  Name="f_42039"  format="ascii">4.4576855242481382e-05   3.9888750408105265e-05   7.9529431196120914e-06   2.0339674583537281e-05   4.0649758688728693e-05   3.6381271562026856e-05   7.8454574716676110e-05   5.9817285693116415e-05   1.5813935395791134e-05   4.3611624998845560e-06   4.5658563332377073e-05   4.3038902898930464e-05   5.2329347209229643e-05   5.9114817954612466e-05   2.1431393638161216e-05   2.2064513967084978e-05   3.6522325531402880e-05   4.9754839556478996e-05   5.5740323284604305e-05   5.1474170735798589e-05   3.5444124802468844e-05   3.1804313970018776e-05   1.5352732773961784e-05   3.2195687093799417e-05   6.9715144036037701e-05   8.7286082418133290e-05   1.9702573159373904e-05   2.8360848130854145e-05   2.6240167515309237e-05   8.0711725789644429e-06   7.6633487626257877e-05   7.0942598374555661e-05   </DataArray> 
</CellData> 
</Piece>
</UnstructuredGrid>
</VTKFile>