<?xml version="1.0"?>
<VTKFile type="UnstructuredGrid"  version="0.1"  >
<UnstructuredGrid>
<Piece  NumberOfPoints="25" NumberOfCells="32">
<Points>
<DataArray  type="Float64"  NumberOfComponents="3"  format="ascii">0 0 0  0.25 0 0  0.5 0 0  0.75 0 0  1 0 0  0 0.25 0  0.25 0.25 0  0.5 0.25 0  0.75 0.25 0  1 0.25 0  0 0.5 0  0.25 0.5 0  0.5 0.5 0  0.75 0.5 0  1 0.5 0  0 0.75 0  0.25 0.75 0  0.5 0.75 0  0.75 0.75 0  1 0.75 0  0 1 0  0.25 1 0  0.5 1 0  0.75 1 0  1 1 0  </DataArray>
</Points>
<Cells>
<DataArray  type="UInt32"  Name="connectivity"  format="ascii">0 1 6  0 5 6  1 2 7  1 6 7  2 3 8  2 7 8  3 4 9  3 8 9  5 6 11  5 10 11  6 7 12  6 11 12  7 8 13  7 12 13  8 9 14  8 13 14  10 11 16  10 15 16  11 12 17  11 16 17  12 13 18  12 17 18  13 14 19  13 18 19  15 16 21  15 20 21  16 17 22  16 21 22  17 18 23  17 22 23  18 19 24  18 23 24  </DataArray>
<DataArray  type="UInt32"  Name="offsets"  format="ascii">3 6 9 12 15 18 21 24 27 30 33 36 39 42 45 48 51 54 57 60 63 66 69 72 75 78 81 84 87 90 93 96 </DataArray>
<DataArray  type="UInt8"  Name="types"  format="ascii">5 5 5 5 5 5 5 5 5 5 5 5 5 5 5 5 5 5 5 5 5 5 5 5 5 5 5 5 5 5 5 5 </DataArray>
</Cells>
<CellData  Scalars="f_37512"> 
<DataArray  type="Float64"  Name="f_37512"  format="ascii">5.7559048905888612e-04   6.1798099626685196e-04   7.4475568996616880e-05   6.6324935194671860e-04   2.4185914740251779e-04   8.5809583153946848e-04   9.3053327988006104e-05   1.5866624492265148e-04   5.3069109457494663e-04   2.4521987076766405e-04   7.7920135034037106e-04   4.8375798949845932e-04   7.4166938022304991e-04   7.1313954974268283e-05   2.9749095395380112e-04   5.1518903250583048e-04   6.9723131260500783e-04   3.6443177219964686e-04   7.5616608214072831e-05   7.0384041067115936e-04   4.4472742051758274e-04   7.2887829591532943e-04   2.5673279833205950e-04   5.5623140604504472e-04   5.6951730727410863e-05   3.3501729422726955e-05   6.6318883044572845e-04   1.5460313561915646e-04   6.2396353321555553e-04   5.4108199180017638e-05   4.3425081564861100e-04   3.7783081355555436e-04   </DataArray> 
</CellData> 
</Piece>
</UnstructuredGrid>
</VTKFile>