<?xml version="1.0"?>
<VTKFile type="UnstructuredGrid"  version="0.1"  >
<UnstructuredGrid>
<Piece  NumberOfPoints="81" NumberOfCells="128">
<Points>
<DataArray  type="Float64"  NumberOfComponents="3"  format="ascii">0 0 0  0.125 0 0  0.25 0 0  0.375 0 0  0.5 0 0  0.625 0 0  0.75 0 0  0.875 0 0  1 0 0  0 0.125 0  0.125 0.125 0  0.25 0.125 0  0.375 0.125 0  0.5 0.125 0  0.625 0.125 0  0.75 0.125 0  0.875 0.125 0  1 0.125 0  0 0.25 0  0.125 0.25 0  0.25 0.25 0  0.375 0.25 0  0.5 0.25 0  0.625 0.25 0  0.75 0.25 0  0.875 0.25 0  1 0.25 0  0 0.375 0  0.125 0.375 0  0.25 0.375 0  0.375 0.375 0  0.5 0.375 0  0.625 0.375 0  0.75 0.375 0  0.875 0.375 0  1 0.375 0  0 0.5 0  0.125 0.5 0  0.25 0.5 0  0.375 0.5 0  0.5 0.5 0  0.625 0.5 0  0.75 0.5 0  0.875 0.5 0  1 0.5 0  0 0.625 0  0.125 0.625 0  0.25 0.625 0  0.375 0.625 0  0.5 0.625 0  0.625 0.625 0  0.75 0.625 0  0.875 0.625 0  1 0.625 0  0 0.75 0  0.125 0.75 0  0.25 0.75 0  0.375 0.75 0  0.5 0.75 0  0.625 0.75 0  0.75 0.75 0  0.875 0.75 0  1 0.75 0  0 0.875 0  0.125 0.875 0  0.25 0.875 0  0.375 0.875 0  0.5 0.875 0  0.625 0.875 0  0.75 0.875 0  0.875 0.875 0  1 0.875 0  0 1 0  0.125 1 0  0.25 1 0  0.375 1 0  0.5 1 0  0.625 1 0  0.75 1 0  0.875 1 0  1 1 0  </DataArray>
</Points>
<Cells>
<DataArray  type="UInt32"  Name="connectivity"  format="ascii">0 1 10  0 9 10  1 2 11  1 10 11  2 3 12  2 11 12  3 4 13  3 12 13  4 5 14  4 13 14  5 6 15  5 14 15  6 7 16  6 15 16  7 8 17  7 16 17  9 10 19  9 18 19  10 11 20  10 19 20  11 12 21  11 20 21  12 13 22  12 21 22  13 14 23  13 22 23  14 15 24  14 23 24  15 16 25  15 24 25  16 17 26  16 25 26  18 19 28  18 27 28  19 20 29  19 28 29  20 21 30  20 29 30  21 22 31  21 30 31  22 23 32  22 31 32  23 24 33  23 32 33  24 25 34  24 33 34  25 26 35  25 34 35  27 28 37  27 36 37  28 29 38  28 37 38  29 30 39  29 38 39  30 31 40  30 39 40  31 32 41  31 40 41  32 33 42  32 41 42  33 34 43  33 42 43  34 35 44  34 43 44  36 37 46  36 45 46  37 38 47  37 46 47  38 39 48  38 47 48  39 40 49  39 48 49  40 41 50  40 49 50  41 42 51  41 50 51  42 43 52  42 51 52  43 44 53  43 52 53  45 46 55  45 54 55  46 47 56  46 55 56  47 48 57  47 56 57  48 49 58  48 57 58  49 50 59  49 58 59  50 51 60  50 59 60  51 52 61  51 60 61  52 53 62  52 61 62  54 55 64  54 63 64  55 56 65  55 64 65  56 57 66  56 65 66  57 58 67  57 66 67  58 59 68  58 67 68  59 60 69  59 68 69  60 61 70  60 69 70  61 62 71  61 70 71  63 64 73  63 72 73  64 65 74  64 73 74  65 66 75  65 74 75  66 67 76  66 75 76  67 68 77  67 76 77  68 69 78  68 77 78  69 70 79  69 78 79  70 71 80  70 79 80  </DataArray>
<DataArray  type="UInt32"  Name="offsets"  format="ascii">3 6 9 12 15 18 21 24 27 30 33 36 39 42 45 48 51 54 57 60 63 66 69 72 75 78 81 84 87 90 93 96 99 102 105 108 111 114 117 120 123 126 129 132 135 138 141 144 147 150 153 156 159 162 165 168 171 174 177 180 183 186 189 192 195 198 201 204 207 210 213 216 219 222 225 228 231 234 237 240 243 246 249 252 255 258 261 264 267 270 273 276 279 282 285 288 291 294 297 300 303 306 309 312 315 318 321 324 327 330 333 336 339 342 345 348 351 354 357 360 363 366 369 372 375 378 381 384 </DataArray>
<DataArray  type="UInt8"  Name="types"  format="ascii">5 5 5 5 5 5 5 5 5 5 5 5 5 5 5 5 5 5 5 5 5 5 5 5 5 5 5 5 5 5 5 5 5 5 5 5 5 5 5 5 5 5 5 5 5 5 5 5 5 5 5 5 5 5 5 5 5 5 5 5 5 5 5 5 5 5 5 5 5 5 5 5 5 5 5 5 5 5 5 5 5 5 5 5 5 5 5 5 5 5 5 5 5 5 5 5 5 5 5 5 5 5 5 5 5 5 5 5 5 5 5 5 5 5 5 5 5 5 5 5 5 5 5 5 5 5 5 5 </DataArray>
</Cells>
<CellData  Scalars="f_109956"> 
<DataArray  type="Float64"  Name="f_109956"  format="ascii">9.3878797573933713e-10   2.2495798740021145e-09   1.6261720274729097e-10   4.8064558703042149e-10   4.7634443489657144e-10   4.4982126597172495e-10   5.8606295055679869e-10   8.9948166740788973e-10   3.5195004245298341e-10   1.0935361141298168e-09   4.1734723437319205e-10   1.0641354961570562e-09   1.3506856280006569e-09   1.3402813600087155e-09   5.1288622363685150e-09   3.0092139441516567e-09   7.0598171378815121e-10   5.4488818700494916e-10   8.7030110166463049e-11   1.3539941280520551e-10   2.7362843652895741e-10   4.0047373769962842e-10   5.8157728449088127e-10   9.5073447363038295e-10   5.9532092832204497e-10   9.2708476104949427e-10   4.2135140260461032e-10   4.3429739218923042e-10   5.0550489037919679e-10   2.7665344214179120e-10   1.8566173000881391e-09   1.5216011800829539e-09   9.5838886994186757e-10   1.2516438982038003e-09   5.2861979035291648e-10   5.0001744445841734e-10   7.6002718838279067e-10   7.2860456636992991e-10   6.8115326893374781e-10   7.4011386570262427e-10   3.0527228048480455e-10   3.2925337959476586e-10   7.9827523195141958e-11   4.1977483297064231e-11   2.7339902112960140e-10   3.1877699185234410e-10   3.7485193027233760e-10   8.0830814677683605e-10   1.8645927346939857e-09   1.2079845316717716e-09   1.2156956810928748e-09   6.8775326102921335e-10   8.3938664975054818e-10   6.2742120904388137e-10   3.1200777201837341e-10   2.6318783558070475e-10   3.8550081549550203e-11   3.3824478544205982e-11   2.3426882440434393e-10   3.3438383410623606e-10   4.3690803286380424e-10   9.6853588737399494e-10   4.0872871632656574e-10   1.4455436898087807e-09   1.5306388813368210e-09   4.4855070114226196e-10   1.0123155303653295e-09   4.6216275820093038e-10   3.5785359014379240e-10   2.4589078295716456e-10   3.4450567522211405e-11   3.7771530301663205e-11   2.4927498580076826e-10   2.9681253881492866e-10   6.1273928959623188e-10   8.2475127106417266e-10   6.6506003239247817e-10   1.2092125768654174e-09   1.1505650289129596e-09   1.8265223133437438e-09   8.3188572269537161e-10   3.1965878561625139e-10   3.4734692807271489e-10   2.6525714267956577e-10   4.1228354324834495e-11   7.9414070918646055e-11   3.0692706097337442e-10   2.9253558769525820e-10   7.2670185162071044e-10   6.6644824166523826e-10   7.3359058455304223e-10   7.6544264290368175e-10   5.0361334204790933e-10   5.5304856779290346e-10   1.2334868904694722e-09   9.7909375696851786e-10   1.3856234879044472e-09   1.6728034533204328e-09   2.6938998659925830e-10   5.0643072478762593e-10   4.0116988577373857e-10   4.2948297492970895e-10   8.8740541863663234e-10   5.6871679616100896e-10   9.4676130251446316e-10   5.6082719582052970e-10   4.2174817303488108e-10   2.7604620524946004e-10   1.3192503187432801e-10   7.8298371300948586e-11   5.2623266223700720e-10   6.3908899863183727e-10   2.9412557020691482e-09   3.8996617209004725e-09   1.4207483523756896e-09   1.5296557427435986e-09   1.0323501840701174e-09   4.3572953712802346e-10   1.0289624936692316e-09   2.9762327773289210e-10   8.7478066550011693e-10   5.3544180933303410e-10   4.6506814136714929e-10   4.7177218217213556e-10   4.4916744826092134e-10   1.7608755123219456e-10   1.8629728162230730e-09   7.7074393765193528e-10   </DataArray> 
</CellData> 
</Piece>
</UnstructuredGrid>
</VTKFile>