<?xml version="1.0"?>
<VTKFile type="UnstructuredGrid"  version="0.1"  >
<UnstructuredGrid>
<Piece  NumberOfPoints="1089" NumberOfCells="2048">
<Points>
<DataArray  type="Float64"  NumberOfComponents="3"  format="ascii">0 0 0  0.03125 0 0  0.0625 0 0  0.09375 0 0  0.125 0 0  0.15625 0 0  0.1875 0 0  0.21875 0 0  0.25 0 0  0.28125 0 0  0.3125 0 0  0.34375 0 0  0.375 0 0  0.40625 0 0  0.4375 0 0  0.46875 0 0  0.5 0 0  0.53125 0 0  0.5625 0 0  0.59375 0 0  0.625 0 0  0.65625 0 0  0.6875 0 0  0.71875 0 0  0.75 0 0  0.78125 0 0  0.8125 0 0  0.84375 0 0  0.875 0 0  0.90625 0 0  0.9375 0 0  0.96875 0 0  1 0 0  0 0.03125 0  0.03125 0.03125 0  0.0625 0.03125 0  0.09375 0.03125 0  0.125 0.03125 0  0.15625 0.03125 0  0.1875 0.03125 0  0.21875 0.03125 0  0.25 0.03125 0  0.28125 0.03125 0  0.3125 0.03125 0  0.34375 0.03125 0  0.375 0.03125 0  0.40625 0.03125 0  0.4375 0.03125 0  0.46875 0.03125 0  0.5 0.03125 0  0.53125 0.03125 0  0.5625 0.03125 0  0.59375 0.03125 0  0.625 0.03125 0  0.65625 0.03125 0  0.6875 0.03125 0  0.71875 0.03125 0  0.75 0.03125 0  0.78125 0.03125 0  0.8125 0.03125 0  0.84375 0.03125 0  0.875 0.03125 0  0.90625 0.03125 0  0.9375 0.03125 0  0.96875 0.03125 0  1 0.03125 0  0 0.0625 0  0.03125 0.0625 0  0.0625 0.0625 0  0.09375 0.0625 0  0.125 0.0625 0  0.15625 0.0625 0  0.1875 0.0625 0  0.21875 0.0625 0  0.25 0.0625 0  0.28125 0.0625 0  0.3125 0.0625 0  0.34375 0.0625 0  0.375 0.0625 0  0.40625 0.0625 0  0.4375 0.0625 0  0.46875 0.0625 0  0.5 0.0625 0  0.53125 0.0625 0  0.5625 0.0625 0  0.59375 0.0625 0  0.625 0.0625 0  0.65625 0.0625 0  0.6875 0.0625 0  0.71875 0.0625 0  0.75 0.0625 0  0.78125 0.0625 0  0.8125 0.0625 0  0.84375 0.0625 0  0.875 0.0625 0  0.90625 0.0625 0  0.9375 0.0625 0  0.96875 0.0625 0  1 0.0625 0  0 0.09375 0  0.03125 0.09375 0  0.0625 0.09375 0  0.09375 0.09375 0  0.125 0.09375 0  0.15625 0.09375 0  0.1875 0.09375 0  0.21875 0.09375 0  0.25 0.09375 0  0.28125 0.09375 0  0.3125 0.09375 0  0.34375 0.09375 0  0.375 0.09375 0  0.40625 0.09375 0  0.4375 0.09375 0  0.46875 0.09375 0  0.5 0.09375 0  0.53125 0.09375 0  0.5625 0.09375 0  0.59375 0.09375 0  0.625 0.09375 0  0.65625 0.09375 0  0.6875 0.09375 0  0.71875 0.09375 0  0.75 0.09375 0  0.78125 0.09375 0  0.8125 0.09375 0  0.84375 0.09375 0  0.875 0.09375 0  0.90625 0.09375 0  0.9375 0.09375 0  0.96875 0.09375 0  1 0.09375 0  0 0.125 0  0.03125 0.125 0  0.0625 0.125 0  0.09375 0.125 0  0.125 0.125 0  0.15625 0.125 0  0.1875 0.125 0  0.21875 0.125 0  0.25 0.125 0  0.28125 0.125 0  0.3125 0.125 0  0.34375 0.125 0  0.375 0.125 0  0.40625 0.125 0  0.4375 0.125 0  0.46875 0.125 0  0.5 0.125 0  0.53125 0.125 0  0.5625 0.125 0  0.59375 0.125 0  0.625 0.125 0  0.65625 0.125 0  0.6875 0.125 0  0.71875 0.125 0  0.75 0.125 0  0.78125 0.125 0  0.8125 0.125 0  0.84375 0.125 0  0.875 0.125 0  0.90625 0.125 0  0.9375 0.125 0  0.96875 0.125 0  1 0.125 0  0 0.15625 0  0.03125 0.15625 0  0.0625 0.15625 0  0.09375 0.15625 0  0.125 0.15625 0  0.15625 0.15625 0  0.1875 0.15625 0  0.21875 0.15625 0  0.25 0.15625 0  0.28125 0.15625 0  0.3125 0.15625 0  0.34375 0.15625 0  0.375 0.15625 0  0.40625 0.15625 0  0.4375 0.15625 0  0.46875 0.15625 0  0.5 0.15625 0  0.53125 0.15625 0  0.5625 0.15625 0  0.59375 0.15625 0  0.625 0.15625 0  0.65625 0.15625 0  0.6875 0.15625 0  0.71875 0.15625 0  0.75 0.15625 0  0.78125 0.15625 0  0.8125 0.15625 0  0.84375 0.15625 0  0.875 0.15625 0  0.90625 0.15625 0  0.9375 0.15625 0  0.96875 0.15625 0  1 0.15625 0  0 0.1875 0  0.03125 0.1875 0  0.0625 0.1875 0  0.09375 0.1875 0  0.125 0.1875 0  0.15625 0.1875 0  0.1875 0.1875 0  0.21875 0.1875 0  0.25 0.1875 0  0.28125 0.1875 0  0.3125 0.1875 0  0.34375 0.1875 0  0.375 0.1875 0  0.40625 0.1875 0  0.4375 0.1875 0  0.46875 0.1875 0  0.5 0.1875 0  0.53125 0.1875 0  0.5625 0.1875 0  0.59375 0.1875 0  0.625 0.1875 0  0.65625 0.1875 0  0.6875 0.1875 0  0.71875 0.1875 0  0.75 0.1875 0  0.78125 0.1875 0  0.8125 0.1875 0  0.84375 0.1875 0  0.875 0.1875 0  0.90625 0.1875 0  0.9375 0.1875 0  0.96875 0.1875 0  1 0.1875 0  0 0.21875 0  0.03125 0.21875 0  0.0625 0.21875 0  0.09375 0.21875 0  0.125 0.21875 0  0.15625 0.21875 0  0.1875 0.21875 0  0.21875 0.21875 0  0.25 0.21875 0  0.28125 0.21875 0  0.3125 0.21875 0  0.34375 0.21875 0  0.375 0.21875 0  0.40625 0.21875 0  0.4375 0.21875 0  0.46875 0.21875 0  0.5 0.21875 0  0.53125 0.21875 0  0.5625 0.21875 0  0.59375 0.21875 0  0.625 0.21875 0  0.65625 0.21875 0  0.6875 0.21875 0  0.71875 0.21875 0  0.75 0.21875 0  0.78125 0.21875 0  0.8125 0.21875 0  0.84375 0.21875 0  0.875 0.21875 0  0.90625 0.21875 0  0.9375 0.21875 0  0.96875 0.21875 0  1 0.21875 0  0 0.25 0  0.03125 0.25 0  0.0625 0.25 0  0.09375 0.25 0  0.125 0.25 0  0.15625 0.25 0  0.1875 0.25 0  0.21875 0.25 0  0.25 0.25 0  0.28125 0.25 0  0.3125 0.25 0  0.34375 0.25 0  0.375 0.25 0  0.40625 0.25 0  0.4375 0.25 0  0.46875 0.25 0  0.5 0.25 0  0.53125 0.25 0  0.5625 0.25 0  0.59375 0.25 0  0.625 0.25 0  0.65625 0.25 0  0.6875 0.25 0  0.71875 0.25 0  0.75 0.25 0  0.78125 0.25 0  0.8125 0.25 0  0.84375 0.25 0  0.875 0.25 0  0.90625 0.25 0  0.9375 0.25 0  0.96875 0.25 0  1 0.25 0  0 0.28125 0  0.03125 0.28125 0  0.0625 0.28125 0  0.09375 0.28125 0  0.125 0.28125 0  0.15625 0.28125 0  0.1875 0.28125 0  0.21875 0.28125 0  0.25 0.28125 0  0.28125 0.28125 0  0.3125 0.28125 0  0.34375 0.28125 0  0.375 0.28125 0  0.40625 0.28125 0  0.4375 0.28125 0  0.46875 0.28125 0  0.5 0.28125 0  0.53125 0.28125 0  0.5625 0.28125 0  0.59375 0.28125 0  0.625 0.28125 0  0.65625 0.28125 0  0.6875 0.28125 0  0.71875 0.28125 0  0.75 0.28125 0  0.78125 0.28125 0  0.8125 0.28125 0  0.84375 0.28125 0  0.875 0.28125 0  0.90625 0.28125 0  0.9375 0.28125 0  0.96875 0.28125 0  1 0.28125 0  0 0.3125 0  0.03125 0.3125 0  0.0625 0.3125 0  0.09375 0.3125 0  0.125 0.3125 0  0.15625 0.3125 0  0.1875 0.3125 0  0.21875 0.3125 0  0.25 0.3125 0  0.28125 0.3125 0  0.3125 0.3125 0  0.34375 0.3125 0  0.375 0.3125 0  0.40625 0.3125 0  0.4375 0.3125 0  0.46875 0.3125 0  0.5 0.3125 0  0.53125 0.3125 0  0.5625 0.3125 0  0.59375 0.3125 0  0.625 0.3125 0  0.65625 0.3125 0  0.6875 0.3125 0  0.71875 0.3125 0  0.75 0.3125 0  0.78125 0.3125 0  0.8125 0.3125 0  0.84375 0.3125 0  0.875 0.3125 0  0.90625 0.3125 0  0.9375 0.3125 0  0.96875 0.3125 0  1 0.3125 0  0 0.34375 0  0.03125 0.34375 0  0.0625 0.34375 0  0.09375 0.34375 0  0.125 0.34375 0  0.15625 0.34375 0  0.1875 0.34375 0  0.21875 0.34375 0  0.25 0.34375 0  0.28125 0.34375 0  0.3125 0.34375 0  0.34375 0.34375 0  0.375 0.34375 0  0.40625 0.34375 0  0.4375 0.34375 0  0.46875 0.34375 0  0.5 0.34375 0  0.53125 0.34375 0  0.5625 0.34375 0  0.59375 0.34375 0  0.625 0.34375 0  0.65625 0.34375 0  0.6875 0.34375 0  0.71875 0.34375 0  0.75 0.34375 0  0.78125 0.34375 0  0.8125 0.34375 0  0.84375 0.34375 0  0.875 0.34375 0  0.90625 0.34375 0  0.9375 0.34375 0  0.96875 0.34375 0  1 0.34375 0  0 0.375 0  0.03125 0.375 0  0.0625 0.375 0  0.09375 0.375 0  0.125 0.375 0  0.15625 0.375 0  0.1875 0.375 0  0.21875 0.375 0  0.25 0.375 0  0.28125 0.375 0  0.3125 0.375 0  0.34375 0.375 0  0.375 0.375 0  0.40625 0.375 0  0.4375 0.375 0  0.46875 0.375 0  0.5 0.375 0  0.53125 0.375 0  0.5625 0.375 0  0.59375 0.375 0  0.625 0.375 0  0.65625 0.375 0  0.6875 0.375 0  0.71875 0.375 0  0.75 0.375 0  0.78125 0.375 0  0.8125 0.375 0  0.84375 0.375 0  0.875 0.375 0  0.90625 0.375 0  0.9375 0.375 0  0.96875 0.375 0  1 0.375 0  0 0.40625 0  0.03125 0.40625 0  0.0625 0.40625 0  0.09375 0.40625 0  0.125 0.40625 0  0.15625 0.40625 0  0.1875 0.40625 0  0.21875 0.40625 0  0.25 0.40625 0  0.28125 0.40625 0  0.3125 0.40625 0  0.34375 0.40625 0  0.375 0.40625 0  0.40625 0.40625 0  0.4375 0.40625 0  0.46875 0.40625 0  0.5 0.40625 0  0.53125 0.40625 0  0.5625 0.40625 0  0.59375 0.40625 0  0.625 0.40625 0  0.65625 0.40625 0  0.6875 0.40625 0  0.71875 0.40625 0  0.75 0.40625 0  0.78125 0.40625 0  0.8125 0.40625 0  0.84375 0.40625 0  0.875 0.40625 0  0.90625 0.40625 0  0.9375 0.40625 0  0.96875 0.40625 0  1 0.40625 0  0 0.4375 0  0.03125 0.4375 0  0.0625 0.4375 0  0.09375 0.4375 0  0.125 0.4375 0  0.15625 0.4375 0  0.1875 0.4375 0  0.21875 0.4375 0  0.25 0.4375 0  0.28125 0.4375 0  0.3125 0.4375 0  0.34375 0.4375 0  0.375 0.4375 0  0.40625 0.4375 0  0.4375 0.4375 0  0.46875 0.4375 0  0.5 0.4375 0  0.53125 0.4375 0  0.5625 0.4375 0  0.59375 0.4375 0  0.625 0.4375 0  0.65625 0.4375 0  0.6875 0.4375 0  0.71875 0.4375 0  0.75 0.4375 0  0.78125 0.4375 0  0.8125 0.4375 0  0.84375 0.4375 0  0.875 0.4375 0  0.90625 0.4375 0  0.9375 0.4375 0  0.96875 0.4375 0  1 0.4375 0  0 0.46875 0  0.03125 0.46875 0  0.0625 0.46875 0  0.09375 0.46875 0  0.125 0.46875 0  0.15625 0.46875 0  0.1875 0.46875 0  0.21875 0.46875 0  0.25 0.46875 0  0.28125 0.46875 0  0.3125 0.46875 0  0.34375 0.46875 0  0.375 0.46875 0  0.40625 0.46875 0  0.4375 0.46875 0  0.46875 0.46875 0  0.5 0.46875 0  0.53125 0.46875 0  0.5625 0.46875 0  0.59375 0.46875 0  0.625 0.46875 0  0.65625 0.46875 0  0.6875 0.46875 0  0.71875 0.46875 0  0.75 0.46875 0  0.78125 0.46875 0  0.8125 0.46875 0  0.84375 0.46875 0  0.875 0.46875 0  0.90625 0.46875 0  0.9375 0.46875 0  0.96875 0.46875 0  1 0.46875 0  0 0.5 0  0.03125 0.5 0  0.0625 0.5 0  0.09375 0.5 0  0.125 0.5 0  0.15625 0.5 0  0.1875 0.5 0  0.21875 0.5 0  0.25 0.5 0  0.28125 0.5 0  0.3125 0.5 0  0.34375 0.5 0  0.375 0.5 0  0.40625 0.5 0  0.4375 0.5 0  0.46875 0.5 0  0.5 0.5 0  0.53125 0.5 0  0.5625 0.5 0  0.59375 0.5 0  0.625 0.5 0  0.65625 0.5 0  0.6875 0.5 0  0.71875 0.5 0  0.75 0.5 0  0.78125 0.5 0  0.8125 0.5 0  0.84375 0.5 0  0.875 0.5 0  0.90625 0.5 0  0.9375 0.5 0  0.96875 0.5 0  1 0.5 0  0 0.53125 0  0.03125 0.53125 0  0.0625 0.53125 0  0.09375 0.53125 0  0.125 0.53125 0  0.15625 0.53125 0  0.1875 0.53125 0  0.21875 0.53125 0  0.25 0.53125 0  0.28125 0.53125 0  0.3125 0.53125 0  0.34375 0.53125 0  0.375 0.53125 0  0.40625 0.53125 0  0.4375 0.53125 0  0.46875 0.53125 0  0.5 0.53125 0  0.53125 0.53125 0  0.5625 0.53125 0  0.59375 0.53125 0  0.625 0.53125 0  0.65625 0.53125 0  0.6875 0.53125 0  0.71875 0.53125 0  0.75 0.53125 0  0.78125 0.531
[...]
<CellData  Scalars="f_155154"> 
<DataArray  type="Float64"  Name="f_155154"  format="ascii">5.6550152884982917e-13   6.6606577928277679e-13   2.3722775088395756e-14   8.0989588239012323e-14   3.2921679989344232e-15   8.5882670743122442e-15   1.6429740793062172e-15   2.9756316346265098e-15   1.5116952830266885e-15   2.1987638760626843e-15   1.4747602542818765e-15   2.0829497962669103e-15   1.4467987376428980e-15   2.0316337207339956e-15   1.4562047693734200e-15   1.9767556716988279e-15   1.5182757882303089e-15   1.9401136999866024e-15   1.6282172893418018e-15   1.9411752229332801e-15   1.7687665107289532e-15   1.9836894808207465e-15   1.9176780018452936e-15   2.0594969699635659e-15   2.0530713087396837e-15   2.1545037664811395e-15   2.1568315460521532e-15   2.2534878462314279e-15   2.2165728879691509e-15   2.3433427785375002e-15   2.2266242558490343e-15   2.4150423758928311e-15   2.1883855631218248e-15   2.4646875285830972e-15   2.1102977370850296e-15   2.4939188684698366e-15   2.0075789995068353e-15   2.5098640983319846e-15   1.9017967455998803e-15   2.5246559153020728e-15   1.8202562979497967e-15   2.5543844213214606e-15   1.7950800245524705e-15   2.6170820689309885e-15   1.8617165227045592e-15   2.7288728021710399e-15   2.0565146596828423e-15   2.8965574288387273e-15   2.4132617841953348e-15   3.1033912139027883e-15   2.9607048361520451e-15   3.2828696374730203e-15   3.7322345091471706e-15   3.2780962016822475e-15   4.8232319837485981e-15   2.8297768797198283e-15   6.4777573520688479e-15   1.9512127345189474e-15   8.2875940449863767e-15   3.6709822292178980e-15   3.6818453393735329e-14   2.3857881780893263e-14   5.9427484373774438e-12   1.9713835505243444e-13   1.1891310270077864e-13   5.3763593378583669e-14   2.8725305029691741e-14   2.6289568879278725e-14   9.9934972173330160e-15   1.6483369626300618e-14   4.8598710535957168e-15   8.0076693834394938e-15   2.8622496753736660e-15   3.7180347603402824e-15   2.0334659477608465e-15   2.0789619676885735e-15   1.6320890050758784e-15   1.4054262417042316e-15   1.4273902263211993e-15   1.1174467981014838e-15   1.3426782388843632e-15   1.0278924657390502e-15   1.3430108258060288e-15   1.0665788982585506e-15   1.4038786226771033e-15   1.1965326798776732e-15   1.5036993027954354e-15   1.3895031247481804e-15   1.6230788910839680e-15   1.6198400280998568e-15   1.7457132892882928e-15   1.8640376286106312e-15   1.8593960686140725e-15   2.1017664454198693e-15   1.9567272833731620e-15   2.3170001455330558e-15   2.0354663448781563e-15   2.4988010620205009e-15   2.0985544948928602e-15   2.6416434339086991e-15   2.1538140865275000e-15   2.7452231057719528e-15   2.2132610696274101e-15   2.8136623228155373e-15   2.2918429884748688e-15   2.8539092222336537e-15   2.4051983803796034e-15   2.8729577222484418e-15   2.5656196974671626e-15   2.8732811134198318e-15   2.7745144312774598e-15   2.8456818818906233e-15   3.0075122390259199e-15   2.7591289883789241e-15   3.1827419029051852e-15   2.5501186979309235e-15   3.0901254646906387e-15   2.1262905229322760e-15   2.2760843791711108e-15   1.4355797713768133e-15   6.0190300453759294e-16   7.1319579565433271e-16   9.0332842983888565e-15   1.0918740194762666e-15   1.2954246033555796e-13   1.0795761888216062e-14   1.6429506613874522e-13   9.6522272693813109e-14   1.8314180713578396e-14   1.2256278508446298e-14   2.2477764351374362e-14   1.3339624058759159e-14   1.0546261230743340e-14   9.1724908088778895e-15   5.5790015325195837e-15   6.8608908349746744e-15   3.1140007009303959e-15   4.1306089964688413e-15   1.7773629841988909e-15   2.1838433314647749e-15   1.0683729327380217e-15   1.1139937612966437e-15   7.2766272580118516e-16   6.1425326860876686e-16   6.1671220897064106e-16   4.5925265710292078e-16   6.5721215147202972e-16   5.2125047956433189e-16   7.9871761919203744e-16   7.2416816575377684e-16   1.0040201966897125e-15   1.0157589596739170e-15   1.2433507032509635e-15   1.3553396525643079e-15   1.4924575040567253e-15   1.7092489288770941e-15   1.7321991780757452e-15   2.0495924905034871e-15   1.9485914558336880e-15   2.3541755199419453e-15   2.1328375644333721e-15   2.6066751623922894e-15   2.2811124265805649e-15   2.7966234055330375e-15   2.3939410320289726e-15   2.9189843378912269e-15   2.4749834086226366e-15   2.9731808346038196e-15   2.5289316056100356e-15   2.9614367734813134e-15   2.5580230739956802e-15   2.8863155487590346e-15   2.5563544438596493e-15   2.7474587895690387e-15   2.5008282435631151e-15   2.5380132993417175e-15   2.3381247415111098e-15   2.2427015997214107e-15   1.9744121141953659e-15   1.8433528029333743e-15   1.3197923790092036e-15   1.3470072949702192e-15   6.6463295387234451e-16   8.7679804720713867e-16   2.4652116802291623e-15   9.8361026473522019e-16   1.5564400233351924e-14   4.0468760236633548e-15   4.2768864958130469e-14   1.9349349487822444e-14   5.9035427562038950e-14   5.8374486743854051e-14   5.4397141209287538e-15   4.0337810569687149e-15   1.0546048451999600e-14   5.8751157685937591e-15   8.0423808489696974e-15   5.0146842967339633e-15   4.7851255256116746e-15   4.1353143313058201e-15   2.7141434727869183e-15   2.9387833670559113e-15   1.4399647318896940e-15   1.6960934717524029e-15   7.0162612406196306e-16   7.9959423224230169e-16   3.4208700074239665e-16   3.2184596289419476e-16   2.4939133412702641e-16   1.8357599931987602e-16   3.4138745861952095e-16   2.8698094654496989e-16   5.5638542363330804e-16   5.5102117503969480e-16   8.4625466436989562e-16   9.1219411932170563e-16   1.1722682196175716e-15   1.3198689868154209e-15   1.5030161141380604e-15   1.7329623970911608e-15   1.8134974641758427e-15   2.1183191364375209e-15   2.0847191233386422e-15   2.4500681790311474e-15   2.3033704999286634e-15   2.7093272734672199e-15   2.4613021388640935e-15   2.8838655373663473e-15   2.5546137023843266e-15   2.9675061439061819e-15   2.5821827694412293e-15   2.9591645020399297e-15   2.5434766795690160e-15   2.8615171730842861e-15   2.4355649274438990e-15   2.6794509055389813e-15   2.2496318926955526e-15   2.4187654063602404e-15   1.9687771716756649e-15   2.0863263585329826e-15   1.5740488385193665e-15   1.6944841997309873e-15   1.0819670141742847e-15   1.2763891502348362e-15   6.8033897608206395e-16   9.2931439686902537e-16   1.0954182409540074e-15   9.3736359485636761e-16   4.1379357428863138e-15   2.1282535319810601e-15   1.1866752330780546e-14   6.7062913706888256e-15   2.2661567305707314e-14   1.8408797514518341e-14   3.5949889375096824e-14   3.5615670377484920e-14   2.3463564320268503e-15   1.7998725919279781e-15   4.0561720337361819e-15   2.4677334798624630e-15   4.3797805386969164e-15   2.4868798686680241e-15   3.1500232917281853e-15   2.1763618118708698e-15   1.8737317999207458e-15   1.6347725020383853e-15   9.5186716412006840e-16   9.7960481864905983e-16   3.9319678443906127e-16   4.3601766714544909e-16   1.4109172633976796e-16   1.3828292541647588e-16   1.2893733736282536e-16   9.9195896913934885e-17   2.9197562521226128e-16   2.7048377492940801e-16   5.7209338307118142e-16   5.8810231831462294e-16   9.1920039784654754e-16   9.9100766965626799e-16   1.2911117226645083e-15   1.4264989999578478e-15   1.6530962717698383e-15   1.8510008358917680e-15   1.9774759442051302e-15   2.2297671410454770e-15   2.2432687459539254e-15   2.5364711407545318e-15   2.4357508672785104e-15   2.7527944632529499e-15   2.5458105950914074e-15   2.8679276289053049e-15   2.5690069545580845e-15   2.8779020800050106e-15   2.5043189709954405e-15   2.7847484584774263e-15   2.3527231911864495e-15   2.5955938168336872e-15   2.1160993337203011e-15   2.3220051112416857e-15   1.7978538916375332e-15   1.9802421711590927e-15   1.4087696379167803e-15   1.5937835208799367e-15   9.8617513068547957e-16   1.2009808760095628e-15   6.4221554049878346e-16   8.7419096066759783e-16   6.5971737749580708e-16   7.6515682273670972e-16   1.6076439535925415e-15   1.2075648792110122e-15   4.2613613420057294e-15   2.9055784148155435e-15   9.0124642828440792e-15   7.0431050792487065e-15   1.5705569159316909e-14   1.4450724704774167e-14   2.3740378633280416e-14   2.3112075696510449e-14   1.5767104213383566e-15   1.3415859263191329e-15   1.6845045224550689e-15   1.2734222349907889e-15   1.9503075484702169e-15   1.1854827204301392e-15   1.6067734759317712e-15   1.0284071190426435e-15   9.9803683675274275e-16   7.5754992766887359e-16   4.7631468195007144e-16   4.3619317208946063e-16   1.6558794209648201e-16   1.7961880893199577e-16   7.5835974386669065e-17   7.8994710409780323e-17   1.7437768871508160e-16   1.6176926710503465e-16   4.1391058264395084e-16   4.0464518432529600e-16   7.4458057912248489e-16   7.6008885747326057e-16   1.1197108371362502e-15   1.1750604731823585e-15   1.4984344570373013e-15   1.6003865938632713e-15   1.8467763034519558e-15   1.9945491549016277e-15   2.1379763319474482e-15   2.3248941565330840e-15   2.3524078531965656e-15   2.5677779036677872e-15   2.4772206110706518e-15   2.7082635148595466e-15   2.5057584076251605e-15   2.7395817624421378e-15   2.4368134664155640e-15   2.6624446691245765e-15   2.2738726853389975e-15   2.4843065403716558e-15   2.0247167242212618e-15   2.2187501817559945e-15   1.7021360987296600e-15   1.8853359691167266e-15   1.3272642129895920e-15   1.5105356197399973e-15   9.3818204571952222e-16   1.1309036744061544e-15   6.0755496988737253e-16   8.0068696758206841e-16   4.7145716891127797e-16   6.0805510863239519e-16   7.5938089172660201e-16   7.0670988295584655e-16   1.7831681882346434e-15   1.3665179328567877e-15   3.8222823559025498e-15   3.0113445693716432e-15   6.9829505546517348e-15   6.0993213713228571e-15   1.1327776009845445e-14   1.0612622583437617e-14   1.6060061352269676e-14   1.5438931175116441e-14   1.7201525344144257e-15   1.6518474534292723e-15   1.0678245879664620e-15   1.1198723726122628e-15   8.8076886984867747e-16   7.4468165894786426e-16   6.8911939654361063e-16   5.3231709915903441e-16   4.1625540358072344e-16   3.5191149650332819e-16   1.8678672788140495e-16   2.0077145954459722e-16   9.0914113290327995e-17   1.2659531769305328e-16   1.5124011193676736e-16   1.7298762701075484e-16   3.4910925666960404e-16   3.5217500102317567e-16   6.4721358055684662e-16   6.4449504302592580e-16   1.0025432354556574e-15   1.0109484948582092e-15   1.3733380342374852e-15   1.4061295609484679e-15   1.7227137551197556e-15   1.7868553162419787e-15   2.0204277354887522e-15   2.1167147284558158e-15   2.2435915351922951e-15   2.3680026067422125e-15   2.3767729923266147e-15   2.5222335268685316e-15   2.4117306733927438e-15   2.5699339924996781e-15   2.3469387052546637e-15   2.5100720786121379e-15   2.1870602457166549e-15   2.3493207329554366e-15   1.9426011350517527e-15   2.1013064430381488e-15   1.6301229531673188e-15   1.7860256016958395e-15   1.2736147547182504e-15   1.4297016496336629e-15   9.0785379751579542e-16   1.0655211397617066e-15   5.8455716572627001e-16   7.3596968474930953e-16   3.8105954457074706e-16   4.9792306104784340e-16   4.0764006406280923e-16   4.3199771638620052e-16   8.0261793368820664e-16   6.5644099597198253e-16   1.7006341320696234e-15   1.3382235061709992e-15   3.1831217190019821e-15   2.6723872564440897e-15   5.2775968622360745e-15   4.7753300150281752e-15   8.0267983125491114e-15   7.4850411908847750e-15   1.0818903044592460e-14   1.0276135734005144e-14   2.3174664411843855e-15   2.3441197341296750e-15   1.2417088128469939e-15   1.4715196109814802e-15   6.9013837740354293e-16   8.3280855734079602e-16   4.0947397022565455e-16   5.0382773092094497e-16   2.3951077834809753e-16   3.2896526501698453e-16   1.6537295376141960e-16   2.5519632234114063e-16   2.0793152784422294e-16   2.8122914296528529e-16   3.6923391908300316e-16   4.1349516906092528e-16   6.2804037793272696e-16   6.4481316617984378e-16   9.4970898515981946e-16   9.5076771702139225e-16   1.2954519180115613e-15   1.2955018228473454e-15   1.6283400498640269e-15   1.6396972675250202e-15   1.9167013958659826e-15   1.9469540155348831e-15   2.1358331298923596e-15   2.1876795452229524e-15   2.2686824127142645e-15   2.3409344257761389e-15   2.3059078222967583e-15   2.3949426026490049e-15   2.2455813093773594e-15   2.3468265116041942e-15   2.0927174464952909e-15   2.2019270205566439e-15   1.8588020314482324e-15   1.9729309505810979e-15   1.5615164721705244e-15   1.6789627463416689e-15   1.2248920150852495e-15   1.3447829796942718e-15   8.8012615820725558e-16   1.0002589448448005e-15   5.6713514373779116e-16   6.8032439412919545e-16   3.3637628738686885e-16   4.2571370932369637e-16   2.4926750509714882e-16   2.8475715851206825e-16   3.7377077470098446e-16   3.1611263741225253e-16   7.7127602897785568e-16   5.9054467172983280e-16   1.4770214086273404e-15   1.1853594225340732e-15   2.4925161439747573e-15   2.1590959830248436e-15   3.8150990185959327e-15   3.4986532502508136e-15   5.4817202674057002e-15   5.0670945788692744e-15   7.0875420068557239e-15   6.6419610488657207e-15   3.1343725875974638e-15   3.1993383315934595e-15   1.7933731677409134e-15   2.0557673258752723e-15   9.9495209966526772e-16   1.2133032784345399e-15   5.8984592430773586e-16   7.7294366657168251e-16   4.1636872707254037e-16   5.7203492717385517e-16   3.9790154407318802e-16   5.2503392575840748e-16   5.0302639408393012e-16   5.9516865291010276e-16   7.0708080888570981e-16   7.6138245533587499e-16   9.7918912501030095e-16   1.0005912842441201e-15   1.2834841792148088e-15   1.2829718300697776e-15   1.5839078408017830e-15   1.5743739175433748e-15   1.8482829283891894e-15   1.8410114532974264e-15   2.0508261943473609e-15   2.0536740246782676e-15   2.1733724050649438e-15   2.1904722668938514e-15   2.2057303484470192e-15   2.2381306863110571e-15   2.1455021993155372e-15   2.1921987817703844e-15   1.9975962710464668e-15   2.0565681845917559e-15   1.7735972338250601e-15   1.8425884656027431e-15   1.4911219240517903e-15   1.5679766373560900e-15   1.1732614974342155e-15   1.2556472861193486e-15   8.4815888331761071e-16   9.3255038151946706e-16   5.4864456981852387e-16   6.2858184079141515e-16   3.1158884060366695e-16   3.7561539026642670e-16   1.7618678696646240e-16   2.0666799799781221e-16   1.7991619446711787e-16   1.5508193104506446e-16   3.5105285091766033e-16   2.5320968919090203e-16   6.9884516580544827e-16   5.2918991805619599e-16   1.2080020016348868e-15   9.9922756468503497e-16   1.8498043249777082e-15   1.6534364976817959e-15   2.6156832487562465e-15   2.4405682727128111e-15   3.5542057990432764e-15   3.2714337819306121e-15   4.4144507025271069e-15   4.0777337125670727e-15   4.0120853733070107e-15   4.0649113010111144e-15   2.5031085603366373e-15   2.7085749230363493e-15   1.5494453513590026e-15   1.7244053478781947e-15   1.0444335295711642e-15   1.2014682697458985e-15   8.3338719830995153e-16   9.7036638885580665e-16   8.1399617873629592e-16   9.2419832871206488e-16   9.2452206009622082e-16   1.0016842698152164e-15   1.1202527164214312e-15   1.1626618429977347e-15   1.3614277734557041e-15   1.3732816156150131e-15   1.6107728480973046e-15   1.6007075882217892e-15   1.8350853737252549e-15   1.8134263488800627e-15   2.0073751638790117e-15   1.9836707167399045e-15   2.1082874795744122e-15   2.0898612685910843e-15   2.1266576508675290e-15   2.1181886726096324e-15   2.0594000866994623e-15   2.0631984256442812e-15   1.9109669063922012e-15   1.9275606992560817e-15   1.6925565991479376e-15   1.7212781625637445e-15   1.4211927342890857e-15   1.4605457223458069e-15   1.1187394846470867e-15   1.1664099180442101e-15   8.1086150718174822e-16   8.6331565426310372e-16   5.2584883607597380e-16   5.7758111311047274e-16   2.9309366961168778e-16   3.3580497586547093e-16   1.4083188955569719e-16   1.6317727861059284e-16   9.2635288310376949e-17   8.1625551207506313e-17   1.6232238230110734e-16   1.0766076556773322e-16   3.4794141100679860e-16   2.4967613023276973e-16   6.2774060741619715e-16   5.0437809501737424e-16   9.6398554069622726e-16   8.5242212291253981e-16   1.3209192896265642e-15   1.2551717895895252e-15   1.6964381968196358e-15   1.6585977802720140e-15   2.1555471330118443e-15   2.0144104643677969e-15   2.5551877235041651e-15   2.3362692545114586e-15   4.8305553599229924e-15   4.8277287006187433e-15   3.2306927236549278e-15   3.3199074033069337e-15   2.1932335300143152e-15   2.2537340684091138e-15   1.6249623117301637e-15   1.6835950086599005e-15   1.3737768197739318e-15   1.4306986911672887e-15   1.3260251443425880e-15   1.3734670317767285e-15   1.4047587327827516e-15   1.4347957530014995e-15   1.5542154040290638e-15   1.5627747219109880e-15   1.7300620545338502e-15   1.7180121626964089e-15   1.8957609168897278e-15   1.8679131890702511e-15   2.0222415998735748e-15   1.9854262194974710e-15   2.0885179786550291e-15   2.0497376258766395e-15   2.0820917634226943e-15   2.0472765961044189e-15   1.9988253743722425e-15   1.9722652345836298e-15   1.8423382679321114e-15   1.8266152935693429e-15   1.6230740749218574e-15   1.6192455335818196e-15   1.3571659931332191e-15   1.3649767046537894e-15   1.0651764065476632e-15   1.0831506573444989e-15   7.7072884668147853e-16   7.9607680132571989e-16   4.9898628772842397e-16   5.2736237657756564e-16   2.7485551704804405e-16   3.0014355652293195e-16   1.2072274455001837e-16   1.3520559424168291e-16   5.3497399274559580e-17   4.8964848350069388e-17   8.0872979895286284e-17   5.1289826071428661e-17   1.9720052963838210e-16   1.4317817488185561e-16   3.8040857392691908e-16   3.1442642460208689e-16   5.9289642006216597e-16   5.4174456751266069e-16   7.9037891377237617e-16   7.8849517982386203e-16   9.4147109239401347e-16   1.0085599852646378e-15   1.0563049150737665e-15   1.1584232712978507e-15   1.2168406380234038e-15   1.2222756931471207e-15   1.3567627340640357e-15   1.2599793824054240e-15   5.4990598008489365e-15   5.4060717311624745e-15   3.8786126503479473e-15   3.8140893537135767e-15   2.8169982910828628e-15   2.7230354044212922e-15   2.2213686251803611e-15   2.1414206772634284e-15   1.9391351780408453e-15   1.8800251909618261e-15   1.8519789607351544e-15   1.8075951980808656e-15   1.8772524992483101e-15   1.8382853706899766e-15   1.9558392202061179e-15   1.9149025765595192e-15   2.0437940460587741e-15   1.9973842911686995e-15   2.1082648216640914e-15   2.0566118134781601e-15   2.1260058282430265e-15   2.0718770706537276e-15   2.0828801213322504e-15   2.0301772838781415e-15   1.9734225414565902e-15   1.9260449982414357e-15   1.8001165611188730e-15   1.7612391126942779e-15   1.5723535316493821e-15   1.5440623633763943e-15   1.3051527092384278e-15   1.2883037477715640e-15   1.0177235147135284e-15   1.0118914598837285e-15   7.3191356707410370e-16   7.3535031290623166e-16   4.7053707967474159e-16   4.8013389149940761e-16   2.5552953407580149e-16   2.6687135197607792e-16   1.0583633781600793e-16   1.1354444057561273e-16   3.4939778731294706e-17   3.3599588203065416e-17   4.8011809834858820e-17   3.4011628487487237e-17   1.3893378683928677e-16   1.1336431435272779e-16   2.8793745352965623e-16   2.6012397460015185e-16   4.6139482100142057e-16   4.5149965876964727e-16   6.1605651019244620e-16   6.5366623539439310e-16   7.1015660709619493e-16   8.2471337341826006e-16   7.2251802338865745e-16   9.2236420183995268e-16   6.7827530338343183e-16   9.1889753780979559e-16   6.7634003400337951e-16   8.2554884703366940e-16   7.0624255452166822e-16   7.2973154096958455e-16   5.9538488101892940e-15   5.7466875256201480e-15   4.3794053067887539e-15   4.1421619528458637e-15   3.3457130293228776e-15   3.0801618791357792e-15   2.7549960263411747e-15   2.5205467824437425e-15   2.4542870384618530e-15   2.2650038441810153e-15   2.3253633802732726e-15   2.1773813453831873e-15   2.2864547196193812e-15   2.1692485155698820e-15   2.2810687770483460e-15   2.1838144064115347e-15   2.2700097164095221e-15   2.1846770110208392e-15   2.2268729888994602e-15   2.1490253035763311e-15   2.1357399712273116e-15   2.0640085119798654e-15   1.9898648858510534e-15   1.9248943515567898e-15   1.7905966392258633e-15   1.7339693566580562e-15   1.5461970723088269e-15   1.4995712170277165e-15   1.270473