<?xml version="1.0"?>
<VTKFile type="UnstructuredGrid"  version="0.1"  >
<UnstructuredGrid>
<Piece  NumberOfPoints="25" NumberOfCells="32">
<Points>
<DataArray  type="Float64"  NumberOfComponents="3"  format="ascii">0 0 0  0.25 0 0  0.5 0 0  0.75 0 0  1 0 0  0 0.25 0  0.25 0.25 0  0.5 0.25 0  0.75 0.25 0  1 0.25 0  0 0.5 0  0.25 0.5 0  0.5 0.5 0  0.75 0.5 0  1 0.5 0  0 0.75 0  0.25 0.75 0  0.5 0.75 0  0.75 0.75 0  1 0.75 0  0 1 0  0.25 1 0  0.5 1 0  0.75 1 0  1 1 0  </DataArray>
</Points>
<Cells>
<DataArray  type="UInt32"  Name="connectivity"  format="ascii">0 1 6  0 5 6  1 2 7  1 6 7  2 3 8  2 7 8  3 4 9  3 8 9  5 6 11  5 10 11  6 7 12  6 11 12  7 8 13  7 12 13  8 9 14  8 13 14  10 11 16  10 15 16  11 12 17  11 16 17  12 13 18  12 17 18  13 14 19  13 18 19  15 16 21  15 20 21  16 17 22  16 21 22  17 18 23  17 22 23  18 19 24  18 23 24  </DataArray>
<DataArray  type="UInt32"  Name="offsets"  format="ascii">3 6 9 12 15 18 21 24 27 30 33 36 39 42 45 48 51 54 57 60 63 66 69 72 75 78 81 84 87 90 93 96 </DataArray>
<DataArray  type="UInt8"  Name="types"  format="ascii">5 5 5 5 5 5 5 5 5 5 5 5 5 5 5 5 5 5 5 5 5 5 5 5 5 5 5 5 5 5 5 5 </DataArray>
</Cells>
<CellData  Scalars="f_37509"> 
<DataArray  type="Float64"  Name="f_37509"  format="ascii">9.7324861695490208e-08   5.3236042383109463e-07   1.2685390067398093e-07   1.3404336721438905e-07   5.5974390959080908e-08   2.1233187841633520e-07   7.1134017208378130e-07   4.6091800537355751e-07   2.6503488572744452e-07   2.0116325654295390e-07   9.5473663730757393e-08   8.8821591919655896e-08   6.8424802583831860e-08   1.1905408201710000e-08   2.4431152977289320e-07   2.3481274085502535e-07   3.0690870403454200e-07   2.0436013572393952e-07   1.3202974513931766e-08   7.0193161264427712e-08   8.7951475622627232e-08   9.4570915086305738e-08   1.6121564375148436e-07   2.7237776876725405e-07   4.1054564899435063e-07   4.5187027305422008e-07   1.5716268461470550e-07   6.3998643820096722e-08   1.4475412371157851e-07   6.2891251745035782e-08   3.4118278471435813e-07   3.1148860144587093e-08   </DataArray> 
</CellData> 
</Piece>
</UnstructuredGrid>
</VTKFile>