<?xml version="1.0"?>
<VTKFile type="UnstructuredGrid"  version="0.1"  >
<UnstructuredGrid>
<Piece  NumberOfPoints="1089" NumberOfCells="2048">
<Points>
<DataArray  type="Float64"  NumberOfComponents="3"  format="ascii">0 0 0  0.03125 0 0  0.0625 0 0  0.09375 0 0  0.125 0 0  0.15625 0 0  0.1875 0 0  0.21875 0 0  0.25 0 0  0.28125 0 0  0.3125 0 0  0.34375 0 0  0.375 0 0  0.40625 0 0  0.4375 0 0  0.46875 0 0  0.5 0 0  0.53125 0 0  0.5625 0 0  0.59375 0 0  0.625 0 0  0.65625 0 0  0.6875 0 0  0.71875 0 0  0.75 0 0  0.78125 0 0  0.8125 0 0  0.84375 0 0  0.875 0 0  0.90625 0 0  0.9375 0 0  0.96875 0 0  1 0 0  0 0.03125 0  0.03125 0.03125 0  0.0625 0.03125 0  0.09375 0.03125 0  0.125 0.03125 0  0.15625 0.03125 0  0.1875 0.03125 0  0.21875 0.03125 0  0.25 0.03125 0  0.28125 0.03125 0  0.3125 0.03125 0  0.34375 0.03125 0  0.375 0.03125 0  0.40625 0.03125 0  0.4375 0.03125 0  0.46875 0.03125 0  0.5 0.03125 0  0.53125 0.03125 0  0.5625 0.03125 0  0.59375 0.03125 0  0.625 0.03125 0  0.65625 0.03125 0  0.6875 0.03125 0  0.71875 0.03125 0  0.75 0.03125 0  0.78125 0.03125 0  0.8125 0.03125 0  0.84375 0.03125 0  0.875 0.03125 0  0.90625 0.03125 0  0.9375 0.03125 0  0.96875 0.03125 0  1 0.03125 0  0 0.0625 0  0.03125 0.0625 0  0.0625 0.0625 0  0.09375 0.0625 0  0.125 0.0625 0  0.15625 0.0625 0  0.1875 0.0625 0  0.21875 0.0625 0  0.25 0.0625 0  0.28125 0.0625 0  0.3125 0.0625 0  0.34375 0.0625 0  0.375 0.0625 0  0.40625 0.0625 0  0.4375 0.0625 0  0.46875 0.0625 0  0.5 0.0625 0  0.53125 0.0625 0  0.5625 0.0625 0  0.59375 0.0625 0  0.625 0.0625 0  0.65625 0.0625 0  0.6875 0.0625 0  0.71875 0.0625 0  0.75 0.0625 0  0.78125 0.0625 0  0.8125 0.0625 0  0.84375 0.0625 0  0.875 0.0625 0  0.90625 0.0625 0  0.9375 0.0625 0  0.96875 0.0625 0  1 0.0625 0  0 0.09375 0  0.03125 0.09375 0  0.0625 0.09375 0  0.09375 0.09375 0  0.125 0.09375 0  0.15625 0.09375 0  0.1875 0.09375 0  0.21875 0.09375 0  0.25 0.09375 0  0.28125 0.09375 0  0.3125 0.09375 0  0.34375 0.09375 0  0.375 0.09375 0  0.40625 0.09375 0  0.4375 0.09375 0  0.46875 0.09375 0  0.5 0.09375 0  0.53125 0.09375 0  0.5625 0.09375 0  0.59375 0.09375 0  0.625 0.09375 0  0.65625 0.09375 0  0.6875 0.09375 0  0.71875 0.09375 0  0.75 0.09375 0  0.78125 0.09375 0  0.8125 0.09375 0  0.84375 0.09375 0  0.875 0.09375 0  0.90625 0.09375 0  0.9375 0.09375 0  0.96875 0.09375 0  1 0.09375 0  0 0.125 0  0.03125 0.125 0  0.0625 0.125 0  0.09375 0.125 0  0.125 0.125 0  0.15625 0.125 0  0.1875 0.125 0  0.21875 0.125 0  0.25 0.125 0  0.28125 0.125 0  0.3125 0.125 0  0.34375 0.125 0  0.375 0.125 0  0.40625 0.125 0  0.4375 0.125 0  0.46875 0.125 0  0.5 0.125 0  0.53125 0.125 0  0.5625 0.125 0  0.59375 0.125 0  0.625 0.125 0  0.65625 0.125 0  0.6875 0.125 0  0.71875 0.125 0  0.75 0.125 0  0.78125 0.125 0  0.8125 0.125 0  0.84375 0.125 0  0.875 0.125 0  0.90625 0.125 0  0.9375 0.125 0  0.96875 0.125 0  1 0.125 0  0 0.15625 0  0.03125 0.15625 0  0.0625 0.15625 0  0.09375 0.15625 0  0.125 0.15625 0  0.15625 0.15625 0  0.1875 0.15625 0  0.21875 0.15625 0  0.25 0.15625 0  0.28125 0.15625 0  0.3125 0.15625 0  0.34375 0.15625 0  0.375 0.15625 0  0.40625 0.15625 0  0.4375 0.15625 0  0.46875 0.15625 0  0.5 0.15625 0  0.53125 0.15625 0  0.5625 0.15625 0  0.59375 0.15625 0  0.625 0.15625 0  0.65625 0.15625 0  0.6875 0.15625 0  0.71875 0.15625 0  0.75 0.15625 0  0.78125 0.15625 0  0.8125 0.15625 0  0.84375 0.15625 0  0.875 0.15625 0  0.90625 0.15625 0  0.9375 0.15625 0  0.96875 0.15625 0  1 0.15625 0  0 0.1875 0  0.03125 0.1875 0  0.0625 0.1875 0  0.09375 0.1875 0  0.125 0.1875 0  0.15625 0.1875 0  0.1875 0.1875 0  0.21875 0.1875 0  0.25 0.1875 0  0.28125 0.1875 0  0.3125 0.1875 0  0.34375 0.1875 0  0.375 0.1875 0  0.40625 0.1875 0  0.4375 0.1875 0  0.46875 0.1875 0  0.5 0.1875 0  0.53125 0.1875 0  0.5625 0.1875 0  0.59375 0.1875 0  0.625 0.1875 0  0.65625 0.1875 0  0.6875 0.1875 0  0.71875 0.1875 0  0.75 0.1875 0  0.78125 0.1875 0  0.8125 0.1875 0  0.84375 0.1875 0  0.875 0.1875 0  0.90625 0.1875 0  0.9375 0.1875 0  0.96875 0.1875 0  1 0.1875 0  0 0.21875 0  0.03125 0.21875 0  0.0625 0.21875 0  0.09375 0.21875 0  0.125 0.21875 0  0.15625 0.21875 0  0.1875 0.21875 0  0.21875 0.21875 0  0.25 0.21875 0  0.28125 0.21875 0  0.3125 0.21875 0  0.34375 0.21875 0  0.375 0.21875 0  0.40625 0.21875 0  0.4375 0.21875 0  0.46875 0.21875 0  0.5 0.21875 0  0.53125 0.21875 0  0.5625 0.21875 0  0.59375 0.21875 0  0.625 0.21875 0  0.65625 0.21875 0  0.6875 0.21875 0  0.71875 0.21875 0  0.75 0.21875 0  0.78125 0.21875 0  0.8125 0.21875 0  0.84375 0.21875 0  0.875 0.21875 0  0.90625 0.21875 0  0.9375 0.21875 0  0.96875 0.21875 0  1 0.21875 0  0 0.25 0  0.03125 0.25 0  0.0625 0.25 0  0.09375 0.25 0  0.125 0.25 0  0.15625 0.25 0  0.1875 0.25 0  0.21875 0.25 0  0.25 0.25 0  0.28125 0.25 0  0.3125 0.25 0  0.34375 0.25 0  0.375 0.25 0  0.40625 0.25 0  0.4375 0.25 0  0.46875 0.25 0  0.5 0.25 0  0.53125 0.25 0  0.5625 0.25 0  0.59375 0.25 0  0.625 0.25 0  0.65625 0.25 0  0.6875 0.25 0  0.71875 0.25 0  0.75 0.25 0  0.78125 0.25 0  0.8125 0.25 0  0.84375 0.25 0  0.875 0.25 0  0.90625 0.25 0  0.9375 0.25 0  0.96875 0.25 0  1 0.25 0  0 0.28125 0  0.03125 0.28125 0  0.0625 0.28125 0  0.09375 0.28125 0  0.125 0.28125 0  0.15625 0.28125 0  0.1875 0.28125 0  0.21875 0.28125 0  0.25 0.28125 0  0.28125 0.28125 0  0.3125 0.28125 0  0.34375 0.28125 0  0.375 0.28125 0  0.40625 0.28125 0  0.4375 0.28125 0  0.46875 0.28125 0  0.5 0.28125 0  0.53125 0.28125 0  0.5625 0.28125 0  0.59375 0.28125 0  0.625 0.28125 0  0.65625 0.28125 0  0.6875 0.28125 0  0.71875 0.28125 0  0.75 0.28125 0  0.78125 0.28125 0  0.8125 0.28125 0  0.84375 0.28125 0  0.875 0.28125 0  0.90625 0.28125 0  0.9375 0.28125 0  0.96875 0.28125 0  1 0.28125 0  0 0.3125 0  0.03125 0.3125 0  0.0625 0.3125 0  0.09375 0.3125 0  0.125 0.3125 0  0.15625 0.3125 0  0.1875 0.3125 0  0.21875 0.3125 0  0.25 0.3125 0  0.28125 0.3125 0  0.3125 0.3125 0  0.34375 0.3125 0  0.375 0.3125 0  0.40625 0.3125 0  0.4375 0.3125 0  0.46875 0.3125 0  0.5 0.3125 0  0.53125 0.3125 0  0.5625 0.3125 0  0.59375 0.3125 0  0.625 0.3125 0  0.65625 0.3125 0  0.6875 0.3125 0  0.71875 0.3125 0  0.75 0.3125 0  0.78125 0.3125 0  0.8125 0.3125 0  0.84375 0.3125 0  0.875 0.3125 0  0.90625 0.3125 0  0.9375 0.3125 0  0.96875 0.3125 0  1 0.3125 0  0 0.34375 0  0.03125 0.34375 0  0.0625 0.34375 0  0.09375 0.34375 0  0.125 0.34375 0  0.15625 0.34375 0  0.1875 0.34375 0  0.21875 0.34375 0  0.25 0.34375 0  0.28125 0.34375 0  0.3125 0.34375 0  0.34375 0.34375 0  0.375 0.34375 0  0.40625 0.34375 0  0.4375 0.34375 0  0.46875 0.34375 0  0.5 0.34375 0  0.53125 0.34375 0  0.5625 0.34375 0  0.59375 0.34375 0  0.625 0.34375 0  0.65625 0.34375 0  0.6875 0.34375 0  0.71875 0.34375 0  0.75 0.34375 0  0.78125 0.34375 0  0.8125 0.34375 0  0.84375 0.34375 0  0.875 0.34375 0  0.90625 0.34375 0  0.9375 0.34375 0  0.96875 0.34375 0  1 0.34375 0  0 0.375 0  0.03125 0.375 0  0.0625 0.375 0  0.09375 0.375 0  0.125 0.375 0  0.15625 0.375 0  0.1875 0.375 0  0.21875 0.375 0  0.25 0.375 0  0.28125 0.375 0  0.3125 0.375 0  0.34375 0.375 0  0.375 0.375 0  0.40625 0.375 0  0.4375 0.375 0  0.46875 0.375 0  0.5 0.375 0  0.53125 0.375 0  0.5625 0.375 0  0.59375 0.375 0  0.625 0.375 0  0.65625 0.375 0  0.6875 0.375 0  0.71875 0.375 0  0.75 0.375 0  0.78125 0.375 0  0.8125 0.375 0  0.84375 0.375 0  0.875 0.375 0  0.90625 0.375 0  0.9375 0.375 0  0.96875 0.375 0  1 0.375 0  0 0.40625 0  0.03125 0.40625 0  0.0625 0.40625 0  0.09375 0.40625 0  0.125 0.40625 0  0.15625 0.40625 0  0.1875 0.40625 0  0.21875 0.40625 0  0.25 0.40625 0  0.28125 0.40625 0  0.3125 0.40625 0  0.34375 0.40625 0  0.375 0.40625 0  0.40625 0.40625 0  0.4375 0.40625 0  0.46875 0.40625 0  0.5 0.40625 0  0.53125 0.40625 0  0.5625 0.40625 0  0.59375 0.40625 0  0.625 0.40625 0  0.65625 0.40625 0  0.6875 0.40625 0  0.71875 0.40625 0  0.75 0.40625 0  0.78125 0.40625 0  0.8125 0.40625 0  0.84375 0.40625 0  0.875 0.40625 0  0.90625 0.40625 0  0.9375 0.40625 0  0.96875 0.40625 0  1 0.40625 0  0 0.4375 0  0.03125 0.4375 0  0.0625 0.4375 0  0.09375 0.4375 0  0.125 0.4375 0  0.15625 0.4375 0  0.1875 0.4375 0  0.21875 0.4375 0  0.25 0.4375 0  0.28125 0.4375 0  0.3125 0.4375 0  0.34375 0.4375 0  0.375 0.4375 0  0.40625 0.4375 0  0.4375 0.4375 0  0.46875 0.4375 0  0.5 0.4375 0  0.53125 0.4375 0  0.5625 0.4375 0  0.59375 0.4375 0  0.625 0.4375 0  0.65625 0.4375 0  0.6875 0.4375 0  0.71875 0.4375 0  0.75 0.4375 0  0.78125 0.4375 0  0.8125 0.4375 0  0.84375 0.4375 0  0.875 0.4375 0  0.90625 0.4375 0  0.9375 0.4375 0  0.96875 0.4375 0  1 0.4375 0  0 0.46875 0  0.03125 0.46875 0  0.0625 0.46875 0  0.09375 0.46875 0  0.125 0.46875 0  0.15625 0.46875 0  0.1875 0.46875 0  0.21875 0.46875 0  0.25 0.46875 0  0.28125 0.46875 0  0.3125 0.46875 0  0.34375 0.46875 0  0.375 0.46875 0  0.40625 0.46875 0  0.4375 0.46875 0  0.46875 0.46875 0  0.5 0.46875 0  0.53125 0.46875 0  0.5625 0.46875 0  0.59375 0.46875 0  0.625 0.46875 0  0.65625 0.46875 0  0.6875 0.46875 0  0.71875 0.46875 0  0.75 0.46875 0  0.78125 0.46875 0  0.8125 0.46875 0  0.84375 0.46875 0  0.875 0.46875 0  0.90625 0.46875 0  0.9375 0.46875 0  0.96875 0.46875 0  1 0.46875 0  0 0.5 0  0.03125 0.5 0  0.0625 0.5 0  0.09375 0.5 0  0.125 0.5 0  0.15625 0.5 0  0.1875 0.5 0  0.21875 0.5 0  0.25 0.5 0  0.28125 0.5 0  0.3125 0.5 0  0.34375 0.5 0  0.375 0.5 0  0.40625 0.5 0  0.4375 0.5 0  0.46875 0.5 0  0.5 0.5 0  0.53125 0.5 0  0.5625 0.5 0  0.59375 0.5 0  0.625 0.5 0  0.65625 0.5 0  0.6875 0.5 0  0.71875 0.5 0  0.75 0.5 0  0.78125 0.5 0  0.8125 0.5 0  0.84375 0.5 0  0.875 0.5 0  0.90625 0.5 0  0.9375 0.5 0  0.96875 0.5 0  1 0.5 0  0 0.53125 0  0.03125 0.53125 0  0.0625 0.53125 0  0.09375 0.53125 0  0.125 0.53125 0  0.15625 0.53125 0  0.1875 0.53125 0  0.21875 0.53125 0  0.25 0.53125 0  0.28125 0.53125 0  0.3125 0.53125 0  0.34375 0.53125 0  0.375 0.53125 0  0.40625 0.53125 0  0.4375 0.53125 0  0.46875 0.53125 0  0.5 0.53125 0  0.53125 0.53125 0  0.5625 0.53125 0  0.59375 0.53125 0  0.625 0.53125 0  0.65625 0.53125 0  0.6875 0.53125 0  0.71875 0.53125 0  0.75 0.53125 0  0.78125 0.531
[...]
<CellData  Scalars="f_132701"> 
<DataArray  type="Float64"  Name="f_132701"  format="ascii">1.8081615131068177e-07   1.7937491983585116e-07   1.7735891174457088e-07   1.7592132164537201e-07   1.7057473803770523e-07   1.6916029989062263e-07   1.6072454191682580e-07   1.5936704845131428e-07   1.4818692193932151e-07   1.4691834856178850e-07   1.3344369052154286e-07   1.3228916383723519e-07   1.1706140711082797e-07   1.1603889654028288e-07   9.9669622172447845e-08   9.8790484152002691e-08   8.1936685841898865e-08   8.1206041921075693e-08   6.4544061803387346e-08   6.3961011214472249e-08   4.8160137298710334e-08   4.7717971483575158e-08   3.3414536403781740e-08   3.3101070502561286e-08   2.0873923507377478e-08   2.0671994324108326e-08   1.1020226589046583e-08   1.0908364869909024e-08   4.2321169966668976e-09   4.1853788650397912e-09   7.7045736089940400e-10   7.6138696686274458e-10   7.6827683673385599e-10   7.6796470391289595e-10   4.2256589011447614e-09   4.2048558585104393e-09   1.1009738157644544e-08   1.0939982277557849e-08   2.0859806263820555e-08   2.0714519586003918e-08   3.3397330752687106e-08   3.3152843583022590e-08   4.8140501702904723e-08   4.7776964625837777e-08   6.4522747165493122e-08   6.4024893722023565e-08   8.1914505625614611e-08   8.1272229288949989e-08   9.9647418368606027e-08   9.8856118589966931e-08   1.1704001123344811e-07   1.1610062584757953e-07   1.3342387790839688e-07   1.3234241376001164e-07   1.4816936016539567e-07   1.4695552393653733e-07   1.6070975180293849e-07   1.5937415733919344e-07   1.7056313986685491e-07   1.6911385345757224e-07   1.7735109358670990e-07   1.7579679594482080e-07   1.8081327935878306e-07   1.7918357013203166e-07   1.7940897941547161e-07   1.7446552541483316e-07   1.7605399526022613e-07   1.7111555471094411e-07   1.6945060305820579e-07   1.6460329864136448e-07   1.5986834497330713e-07   1.5521259665871824e-07   1.4767585884322857e-07   1.4330470699867873e-07   1.3333815232186831e-07   1.2932941781293189e-07   1.1740335339769273e-07   1.1381772399326270e-07   1.0048224210825406e-07   9.7362478141430476e-08   8.3224342709605982e-08   8.0594568444363195e-08   6.6292543594576412e-08   6.4157760276431810e-08   5.0337385831590626e-08   4.8683460501312864e-08   3.5971953794994467e-08   3.4766230822187799e-08   2.3748269579065338e-08   2.2940850259025122e-08   1.4136061817578719e-08   1.3661730892580060e-08   7.5047079652598912e-09   7.2854434438857012e-09   4.1090371021586618e-09   4.0570105442770281e-09   4.0795362414458840e-09   4.1004894117580556e-09   7.4173355616503250e-09   7.4142040854278999e-09   1.3994164935055482e-08   1.3870809839609790e-08   2.3557283264229352e-08   2.3222187046357482e-08   3.5739191000681985e-08   3.5108976095533954e-08   5.0071752046125689e-08   4.9074385951348509e-08   6.6004180514939510e-08   6.4581742236980899e-08   8.2924195275128823e-08   8.1035089134628875e-08   1.0018151157102320e-07   9.7802018709122501e-08   1.1711271769342519e-07   1.1423775414552166e-07   1.3306646149843637e-07   1.2970933127615166e-07   1.4742776159562221e-07   1.4361854057389517e-07   1.5964041027504602e-07   1.5542259321468064e-07   1.6922799498150635e-07   1.6465434201534618e-07   1.7581931956702004e-07   1.7095322040013435e-07   1.7917986442523725e-07   1.7411328621127270e-07   1.7456415351487006e-07   1.6626784028701406e-07   1.7147356359349539e-07   1.6311304442847272e-07   1.6533919038732050e-07   1.5707095731718154e-07   1.5643034886246501e-07   1.4842375329491902e-07   1.4508929221206726e-07   1.3750309286636965e-07   1.3174373714027143e-07   1.2471591554718246e-07   1.1690037920834921e-07   1.1054413799690687e-07   1.0112636955780446e-07   9.5527424010430571e-08   8.5026421149265246e-08   8.0240667742170341e-08   6.9218636187230554e-08   6.5270446265022598e-08   5.4310252609095082e-08   5.1191712923153046e-08   4.0874086560208937e-08   3.8545368037002711e-08   2.9426431374885017e-08   2.7817341617201300e-08   2.0407184245662628e-08   1.9419871929040043e-08   1.4162929843328951e-08   1.3675647206162187e-08   1.0933617425743139e-08   1.0805399680887811e-08   1.0843338488923220e-08   1.0919421404572934e-08   1.3895557663308216e-08   1.4013325430589419e-08   1.9972979542858952e-08   1.9968214437813085e-08   2.8842056298332342e-08   2.8555249963055910e-08   4.0161962472962558e-08   3.9444446145548843e-08   5.3497690904423791e-08   5.2217348423313750e-08   6.8336762637884361e-08   6.6383104427293896e-08   8.4108896385072410e-08   8.1397291770881093e-08   1.0020784517970601e-07   9.6682726541031196e-08   1.1601446265039825e-07   1.1165131108723043e-07   1.3091988385448076e-07   1.2572575430769065e-07   1.4434754171836506e-07   1.3835977961870150e-07   1.5577309174491017e-07   1.4905593057968205e-07   1.6474424920993787e-07   1.5738412829251069e-07   1.7091170487346517e-07   1.6301673034213509e-07   1.7407641991023716e-07   1.6579007871972413e-07   1.6646124186953840e-07   1.5511990800892393e-07   1.6378266803065901e-07   1.5224658499743418e-07   1.5838480429331256e-07   1.4687679051523869e-07   1.5052443135455744e-07   1.3928089227904301e-07   1.4050199645986515e-07   1.2974861355665561e-07   1.2868948748198881e-07   1.1862877137714599e-07   1.1553127206230682e-07   1.0633601751787526e-07   1.0152807901767520e-07   9.3336263417500803e-08   8.7215881764362939e-08   8.0126259730615970e-08   7.3143824139771838e-08   6.7212542783399955e-08   5.9852352894264251e-08   5.5090958317442068e-08   4.7852118523292166e-08   4.4227171842328521e-08   3.7604223274860880e-08   3.5038605579711993e-08   2.9502455221923920e-08   2.7878337171563365e-08   2.3858139572258869e-08   2.3021510955210822e-08   2.0888169558522096e-08   2.0654757956971670e-08   2.0706669822839772e-08   2.0869021935444744e-08   2.3320610295635776e-08   2.3656064068848477e-08   2.8629538337144482e-08   2.8908779595436087e-08   3.6429439068623584e-08   3.6425313786345823e-08   4.6420574959756481e-08   4.5916818368268593e-08   5.8219001561838354e-08   5.7018548052807472e-08   7.1371310797321706e-08   6.9303863210157347e-08   8.5372016394832362e-08   8.2300576994855841e-08   9.9682858743958985e-08   9.5508950178110451e-08   1.1375314363623775e-07   1.0842046173191208e-07   1.2704000980055618e-07   1.2053622730352874e-07   1.3902732415947939e-07   1.3138369810331186e-07   1.4924245598823145e-07   1.4053093751711855e-07   1.5727428949709555e-07   1.4760278864341578e-07   1.6280818715558479e-07   1.5231850815843229e-07   1.6568647423021336e-07   1.5456379984208809e-07   1.5543411852134107e-07   1.4147126698139614e-07   1.5330059077009308e-07   1.3895672510577885e-07   1.4887658396286421e-07   1.3443438166050605e-07   1.4239482555891448e-07   1.2815350522219985e-07   1.3410080510035059e-07   1.2035175030963621e-07   1.2429520660244138e-07   1.1130730840625974e-07   1.1334209990881704e-07   1.0135237074005222e-07   1.0165596554098013e-07   9.0861718920533734e-08   8.9683124549220871e-08   8.0235158352576082e-08   7.7882600221943743e-08   6.9879756251668989e-08   6.6707473253408420e-08   6.0192982305890030e-08   5.6587043233137580e-08   5.1546916598620105e-08   4.7910167831062836e-08   4.4273752703931334e-08   4.1010261471590558e-08   3.8652961435343171e-08   3.6152463168663017e-08   3.4900527556186371e-08   3.3523441336360800e-08   3.3160642303279009e-08   3.3224218477954345e-08   3.3500160124592141e-08   3.5266288549662416e-08   3.5906029043431068e-08   3.9571175238731191e-08   4.0285792215041609e-08   4.5973447662282413e-08   4.6471140847033700e-08   5.4227076794030209e-08   5.4224381039946757e-08   6.4014885829377327e-08   6.3247563180317990e-08   7.4960723208286718e-08   7.3193913803462488e-08   8.6643865717178698e-08   8.3681102198972704e-08   9.8615027639711832e-08   9.4305750690271333e-08   1.1041317866092769e-07   1.0465842026530391e-07   1.2158212283033917e-07   1.1433802824112039e-07   1.3168557451620890e-07   1.2296440255369638e-07   1.4032019392131201e-07   1.3018847908741924e-07   1.4713112533922285e-07   1.3570542524359531e-07   1.5184954258713103e-07   1.3929330881538039e-07   1.5436343846316309e-07   1.4089259328306657e-07   1.4192754439821948e-07   1.2585892351738093e-07   1.4045311998681546e-07   1.2376733753005475e-07   1.3720287160881642e-07   1.2023469098329480e-07   1.3237534234049021e-07   1.1548085805129334e-07   1.2615055295483768e-07   1.0968354253786780e-07   1.1874545375661571e-07   1.0304070838475087e-07   1.1042917667696672e-07   9.5790183666346964e-08   1.0151361196637535e-07   8.8201844787145787e-08   9.2338107685389078e-08   8.0563571948621948e-08   8.3254008409624539e-08   7.3167454298819633e-08   7.4609947025443583e-08   6.6297193081690359e-08   6.6737940185651046e-08   6.0216619426699210e-08   5.9940437343991637e-08   5.5159334913904179e-08   5.4478630531854193e-08   5.1319656581648719e-08   5.0562394736967249e-08   4.8845123635200391e-08   4.8342215668960995e-08   4.7830819562367890e-08   4.7903404740188713e-08   4.8315715834571662e-08   4.9262820159407277e-08   5.0281173712644332e-08   5.2368219023947775e-08   5.3651660416005886e-08   5.7100264743428913e-08   5.8297651493592755e-08   6.3277111650239715e-08   6.4040606790070548e-08   7.0661387508043083e-08   7.0659825484400619e-08   7.8969295744476721e-08   7.7900906241465794e-08   8.7881457977783224e-08   8.5485455434409698e-08   9.7054996891172684e-08   9.3121580008300834e-08   1.0613618282047824e-07   1.0051452962749840e-07   1.1477269643642862e-07   1.0737656923536921e-07   1.2262433072225555e-07   1.1343490610419459e-07   1.2937182167012248e-07   1.1843739779562182e-07   1.3472933866484076e-07   1.2216208173664561e-07   1.3848315456930256e-07   1.2445534262025283e-07   1.4056986466998091e-07   1.2531573669580321e-07   1.2647310912378123e-07   1.0888894132869454e-07   1.2574747962362794e-07   1.0726829908281518e-07   1.2382615424726894e-07   1.0482959823900643e-07   1.2086482215689243e-07   1.0175616969741364e-07   1.1697023498931762e-07   9.8160225759171512e-08   1.1226652585785790e-07   9.4153005235979595e-08   1.0691695705258578e-07   8.9869700413775959e-08   1.0111845867199134e-07   8.5465533645991284e-08   9.5090217204860880e-08   8.1105773193245573e-08   8.9062498142121859e-08   7.6956430545565387e-08   8.3266438178756960e-08   7.3176408309183295e-08   7.7924596255412695e-08   6.9910774755057528e-08   7.3242187789776993e-08   6.7284954463724627e-08   6.9399124106813394e-08   6.5399825873790073e-08   6.6543074227206840e-08   6.4327817288357269e-08   6.4783782550678773e-08   6.4110114974786797e-08   6.4188849334617429e-08   6.4755077927486957e-08   6.4781132360800889e-08   6.6237915998287578e-08   6.6537868405363162e-08   6.8501642365199207e-08   6.9391547630300233e-08   7.1459263039569097e-08   7.3232506136526530e-08   7.4997118093522507e-08   7.7913133497197167e-08   7.8979242622436192e-08   8.3253522454076786e-08   8.3252568541365364e-08   8.9048310477904304e-08   8.7652733262174003e-08   9.5074357821185994e-08   9.2010176273111127e-08   1.0109873322360563e-07   9.6156044795020709e-08   1.0688619664534406e-07   9.9927147939502604e-08   1.1220513280219492e-07   1.0316894435981464e-07   1.1683185640593071e-07   1.0573651341588681e-07   1.2055958669076479e-07   1.0750007645381335e-07   1.2323678285105697e-07   1.0838117566418414e-07   1.2484979998569351e-07   1.0843761806975139e-07   1.0967087879172462e-07   9.1216140372055033e-08   1.0975522142164387e-07   9.0096228215024258e-08   1.0926719054432421e-07   8.8813784318122838e-08   1.0831257296521173e-07   8.7509810474966069e-08   1.0691988462217178e-07   8.6227971970686970e-08   1.0511493774643174e-07   8.4989593503099323e-08   1.0294825950382247e-07   8.3822880487520835e-08   1.0049385752003790e-07   8.2763034693347252e-08   9.7842173214549716e-08   8.1846712283188730e-08   9.5093632968828403e-08   8.1107566148191314e-08   9.2353332377250310e-08   8.0573439228116978e-08   8.9726393674543861e-08   8.0264660841640228e-08   8.7313700032246287e-08   8.0193026145044754e-08   8.5207940202193791e-08   8.0361258879709278e-08   8.3490020908862814e-08   8.0762878912222007e-08   8.2225949770214310e-08   8.1382442543365570e-08   8.1464296424743939e-08   8.2196133418464554e-08   8.1234325471391397e-08   8.3172677052480460e-08   8.1544871664443668e-08   8.4274542402484789e-08   8.2383999896355532e-08   8.5459383590967182e-08   8.3719461776259151e-08   8.6681665153414896e-08   8.5499927426602312e-08   8.7894404653873571e-08   8.7656933242818760e-08   8.9050954090776296e-08   9.0107435426797790e-08   9.0106716838127775e-08   9.2756773255579366e-08   9.1020636691393788e-08   9.5501682007351626e-08   9.1756153974275445e-08   9.8232712584660182e-08   9.2281053861059453e-08   1.0083517926520708e-07   9.2565388238634804e-08   1.0318878431174790e-07   9.2577641793086880e-08   1.0517274091698569e-07   9.2285988901760798e-08   1.0670235210308537e-07   9.1691093848000699e-08   1.0781301883733284e-07   9.0908959266676366e-08   9.2169277240287493e-08   7.3520795654218587e-08   9.3093627580059806e-08   7.2912041551723541e-08   9.4088316169891301e-08   7.2803795506369046e-08   9.5204034475212828e-08   7.3290529816534391e-08   9.6389069148149122e-08   7.4346904908322577e-08   9.7569168491894749e-08   7.5904571889501362e-08   9.8679578006016990e-08   7.7884489965979387e-08   9.9668131461452725e-08   8.0201068193776574e-08   1.0049287637500687e-07   8.2761274923772991e-08   1.0112061693384115e-07   8.5465191464692660e-08   1.0152669433109156e-07   8.8208358012469761e-08   1.0169531708788349e-07   9.0885164433112320e-08   1.0161993776616350e-07   9.3392673931725495e-08   1.0130342485335935e-07   9.5634496574702875e-08   1.0075792651353639e-07   9.7524466260734413e-08   1.0000439572075922e-07   9.8989943438539364e-08   9.9071782738137192e-08   9.9974604002626702e-08   9.7995921966161068e-08   1.0044060301605864e-07   9.6818154611809585e-08   1.0037002872135371e-07   9.5583739397009713e-08   9.9765590253257335e-08   9.4340111080645360e-08   9.8650511415556019e-08   9.3135049773962815e-08   9.7067630949802727e-08   9.2014819186034295e-08   9.5077732433072759e-08   9.1022309269183565e-08   9.2757133796501603e-08   9.0195155077506507e-08   9.0194533639328287e-08   8.9563654779612046e-08   8.7486993599742389e-08   8.9148035456993260e-08   8.4734688059917606e-08   8.8954386374430386e-08   8.2033827254092242e-08   8.8969625156140913e-08   7.9468135103506772e-08   8.9162583952381173e-08   7.7105753954262057e-08   8.9517493636455681e-08   7.5027415688269059e-08   9.0116240808256740e-08   7.3404069043920378e-08   7.4642028230964547e-08   5.6483403706425051e-08   7.6404058461851410e-08   5.6376502112600863e-08   7.8873954210964779e-08   5.7415292354966847e-08   8.2044188228675216e-08   5.9645278090601362e-08   8.5783873084748331e-08   6.2974283425214734e-08   8.9920776285954177e-08   6.7247954628071092e-08   9.4276734062126431e-08   7.2283854219027990e-08   9.8674995350304303e-08   7.7879458120454384e-08   1.0294264521143296e-07   8.3815945298265341e-08   1.0691421035527311e-07   8.9863735939700266e-08   1.1043654379162512e-07   9.5789899183541151e-08   1.1337410365983654e-07   1.0136651551264890e-07   1.1561393655211333e-07   1.0637921420568922e-07   1.1706994029502775e-07   1.1063533404390085e-07   1.1768614737708147e-07   1.1397130152194534e-07   1.1743886787550508e-07   1.1625890874167623e-07   1.1633759754259751e-07   1.1741023785443938e-07   1.1442465224979627e-07   1.1738103889830924e-07   1.1177354154698206e-07   1.1617242992260939e-07   1.0848614313998662e-07   1.1383085339966640e-07   1.0468878558250462e-07   1.1044628945306911e-07   1.0052738582797752e-07   1.0614879110515276e-07   9.6161816476996048e-08   1.0110346386920844e-07   9.1759683776148132e-08   9.5504050343214669e-08   8.7489658058000437e-08   8.9565276474838931e-08   8.3514369756092265e-08   8.3514026560147498e-08   7.9982627788525833e-08   7.7579197019127681e-08   7.7020501494392526e-08   7.1979879902542574e-08   7.4721829715253799e-08   6.6912450509628068e-08   7.3145243188174423e-08   6.2543201860293163e-08   7.2343343097278374e-08   5.9030817020080583e-08   7.2440181742835732e-08   5.6595849895608216e-08   5.7763181864330850e-08   4.0758920475177148e-08   6.0328293121511231e-08   4.1125215928132214e-08   6.4209191629754419e-08   4.3239797884082949e-08   6.9339217952875977e-08   4.7098629338045166e-08   7.5512384862018943e-08   5.2547420019887740e-08   8.2464313493435325e-08   5.9352774457465981e-08   8.9909653783008004e-08   6.7236674249481779e-08   9.7553441792712842e-08   7.5888010031059501e-08   1.0509826066732147e-07   8.4970899159458298e-08   1.1225278437294574e-07   9.4134989574866043e-08   1.1874157858137276e-07   1.0302764388786225e-07   1.2431511349057469e-07   1.1130695953361386e-07   1.2875914102158547e-07   1.1865470854768676e-07   1.3190285504760597e-07   1.2478849724659770e-07   1.3362543149240160e-07   1.2947259537723591e-07   1.3386066410149301e-07   1.3252698772712518e-07   1.3259950650187310e-07   1.3383428968759029e-07   1.2989041921126991e-07   1.3334425751149661e-07   1.2583750705529752e-07   1.3107571878098247e-07   1.2059651791163639e-07   1.2711584830273091e-07   1.1436885532603589e-07   1.2161681622239498e-07   1.0739383140247931e-07   1.1478993403329965e-07   9.9939446320644860e-08   1.0689751365587684e-07   9.2292015448170603e-08   9.8242723314306123e-08   8.4744951110426735e-08   8.9157749161770627e-08   7.7586902224774255e-08   7.9990513858300879e-08   7.1089225400019136e-08   7.1090025254343263e-08   6.5492565108310844e-08   6.2790261883000496e-08   6.0993278918182337e-08   5.5393337742100133e-08   5.7736527092070669e-08   4.9158113207553475e-08   5.5840103098238986e-08   4.4316117903790758e-08   5.5464298342688535e-08   4.1130270805817785e-08   4.2181607200893018e-08   2.6951745072226576e-08   4.5484277325443635e-08   2.7744352817747491e-08   5.0657733753265950e-08   3.0822127412749084e-08   5.7577530086045038e-08   3.6132815638261779e-08   6.5969525545746265e-08   4.3467113302811514e-08   7.5486561365230656e-08   5.2522577603108119e-08   8.5746438311524351e-08   6.2937094048746349e-08   9.6346891620017567e-08   7.4303485904789887e-08   1.0687724579412939e-07   8.6182033119613689e-08   1.1693158183250979e-07   9.8115139576651286e-08   1.2612307713121569e-07   1.0964382441792666e-07   1.3409835580550327e-07   1.2032490709029871e-07   1.4055087818156724e-07   1.2974786882513694e-07   1.4523265527912116e-07   1.3755056943884791e-07   1.4796375745523360e-07   1.4343314454222089e-07   1.4863922229886798e-07   1.4716952285021356e-07   1.4723308625368629e-07   1.4861611194984262e-07   1.4379938178071676e-07   1.4771731578110970e-07   1.3847006066505652e-07   1.4450767082460312e-07   1.3144992268002199e-07   1.3911051840007765e-07   1.2300874339104748e-07   1.3173326321276341e-07   1.1347090028323991e-07   1.2265939767116770e-07   1.0320288561732876e-07   1.1223759010170057e-07   9.2599155846919856e-08   1.0086823134328513e-07   8.2066779183410832e-08   8.8987887913574456e-08   7.2009267190303470e-08   7.7052086390129520e-08   6.2809781174488355e-08   6.5516721076840060e-08   5.4813733321934791e-08   5.4818248437546193e-08   4.8311658665976180e-08   4.5353547356078974e-08   4.3528654657521357e-08   3.7464907707733871e-08   4.0642027437909773e-08   3.1448804098660733e-08   3.9840993562353585e-08   2.7601653532104565e-08   2.8496213987849188e-08   1.5592550556739428e-08   3.2442532671259540e-08   1.6748172096106500e-08   3.8740410820010214e-08   2.0639511549095852e-08   4.7211174700034953e-08   2.7169273464808861e-08   5.7522087255040590e-08   3.6082349515096697e-08   6.9255751824089980e-08   4.7019893823779394e-08   8.1947175826844657e-08   5.9550410131783403e-08   9.5101827551476095e-08   7.3186862594686117e-08   1.0821136765468968e-07   8.7402907318165929e-08   1.2077094708231261e-07   1.0165135282771456e-07   1.3229753416522644e-07   1.1538432389282059e-07   1.4234803919470202e-07   1.2807395850221888e-07   1.5053618041670086e-07   1.3923255970480926e-07   1.5654727298095093e-07   1.4843129097711932e-07   1.601503