<?xml version="1.0"?>
<VTKFile type="UnstructuredGrid"  version="0.1"  >
<UnstructuredGrid>
<Piece  NumberOfPoints="25" NumberOfCells="32">
<Points>
<DataArray  type="Float64"  NumberOfComponents="3"  format="ascii">0 0 0  0.25 0 0  0.5 0 0  0.75 0 0  1 0 0  0 0.25 0  0.25 0.25 0  0.5 0.25 0  0.75 0.25 0  1 0.25 0  0 0.5 0  0.25 0.5 0  0.5 0.5 0  0.75 0.5 0  1 0.5 0  0 0.75 0  0.25 0.75 0  0.5 0.75 0  0.75 0.75 0  1 0.75 0  0 1 0  0.25 1 0  0.5 1 0  0.75 1 0  1 1 0  </DataArray>
</Points>
<Cells>
<DataArray  type="UInt32"  Name="connectivity"  format="ascii">0 1 6  0 5 6  1 2 7  1 6 7  2 3 8  2 7 8  3 4 9  3 8 9  5 6 11  5 10 11  6 7 12  6 11 12  7 8 13  7 12 13  8 9 14  8 13 14  10 11 16  10 15 16  11 12 17  11 16 17  12 13 18  12 17 18  13 14 19  13 18 19  15 16 21  15 20 21  16 17 22  16 21 22  17 18 23  17 22 23  18 19 24  18 23 24  </DataArray>
<DataArray  type="UInt32"  Name="offsets"  format="ascii">3 6 9 12 15 18 21 24 27 30 33 36 39 42 45 48 51 54 57 60 63 66 69 72 75 78 81 84 87 90 93 96 </DataArray>
<DataArray  type="UInt8"  Name="types"  format="ascii">5 5 5 5 5 5 5 5 5 5 5 5 5 5 5 5 5 5 5 5 5 5 5 5 5 5 5 5 5 5 5 5 </DataArray>
</Cells>
<CellData  Scalars="f_36176"> 
<DataArray  type="Float64"  Name="f_36176"  format="ascii">2.4620035676493307e-03   1.1275421828386767e-03   7.6672560352429673e-04   4.0073686876809279e-04   5.6861659783084839e-04   5.6533127733565810e-04   2.2654913173105347e-03   1.3484492719443063e-03   2.2661875443143404e-03   2.7200157375057420e-08   2.4509992274197707e-03   1.1390478037899897e-03   1.2983390221008083e-03   2.2469206006551969e-03   1.1685295332869642e-03   1.1117616218633648e-03   1.1227249752908503e-03   1.1337771345673459e-03   2.2711583341624110e-03   1.3052552457726901e-03   1.1520131918657636e-03   2.4694353022070357e-03   7.2513274743161638e-07   2.2466579197617069e-03   1.3276986447694648e-03   2.2654913173105386e-03   5.8775761744572037e-04   5.8261836937563102e-04   4.0920661903362445e-04   7.9389700598001282e-04   1.0947907195606693e-03   2.4760185259852063e-03   </DataArray> 
</CellData> 
</Piece>
</UnstructuredGrid>
</VTKFile>