<?xml version="1.0"?>
<VTKFile type="UnstructuredGrid"  version="0.1"  >
<UnstructuredGrid>
<Piece  NumberOfPoints="1089" NumberOfCells="2048">
<Points>
<DataArray  type="Float64"  NumberOfComponents="3"  format="ascii">0 0 0  0.03125 0 0  0.0625 0 0  0.09375 0 0  0.125 0 0  0.15625 0 0  0.1875 0 0  0.21875 0 0  0.25 0 0  0.28125 0 0  0.3125 0 0  0.34375 0 0  0.375 0 0  0.40625 0 0  0.4375 0 0  0.46875 0 0  0.5 0 0  0.53125 0 0  0.5625 0 0  0.59375 0 0  0.625 0 0  0.65625 0 0  0.6875 0 0  0.71875 0 0  0.75 0 0  0.78125 0 0  0.8125 0 0  0.84375 0 0  0.875 0 0  0.90625 0 0  0.9375 0 0  0.96875 0 0  1 0 0  0 0.03125 0  0.03125 0.03125 0  0.0625 0.03125 0  0.09375 0.03125 0  0.125 0.03125 0  0.15625 0.03125 0  0.1875 0.03125 0  0.21875 0.03125 0  0.25 0.03125 0  0.28125 0.03125 0  0.3125 0.03125 0  0.34375 0.03125 0  0.375 0.03125 0  0.40625 0.03125 0  0.4375 0.03125 0  0.46875 0.03125 0  0.5 0.03125 0  0.53125 0.03125 0  0.5625 0.03125 0  0.59375 0.03125 0  0.625 0.03125 0  0.65625 0.03125 0  0.6875 0.03125 0  0.71875 0.03125 0  0.75 0.03125 0  0.78125 0.03125 0  0.8125 0.03125 0  0.84375 0.03125 0  0.875 0.03125 0  0.90625 0.03125 0  0.9375 0.03125 0  0.96875 0.03125 0  1 0.03125 0  0 0.0625 0  0.03125 0.0625 0  0.0625 0.0625 0  0.09375 0.0625 0  0.125 0.0625 0  0.15625 0.0625 0  0.1875 0.0625 0  0.21875 0.0625 0  0.25 0.0625 0  0.28125 0.0625 0  0.3125 0.0625 0  0.34375 0.0625 0  0.375 0.0625 0  0.40625 0.0625 0  0.4375 0.0625 0  0.46875 0.0625 0  0.5 0.0625 0  0.53125 0.0625 0  0.5625 0.0625 0  0.59375 0.0625 0  0.625 0.0625 0  0.65625 0.0625 0  0.6875 0.0625 0  0.71875 0.0625 0  0.75 0.0625 0  0.78125 0.0625 0  0.8125 0.0625 0  0.84375 0.0625 0  0.875 0.0625 0  0.90625 0.0625 0  0.9375 0.0625 0  0.96875 0.0625 0  1 0.0625 0  0 0.09375 0  0.03125 0.09375 0  0.0625 0.09375 0  0.09375 0.09375 0  0.125 0.09375 0  0.15625 0.09375 0  0.1875 0.09375 0  0.21875 0.09375 0  0.25 0.09375 0  0.28125 0.09375 0  0.3125 0.09375 0  0.34375 0.09375 0  0.375 0.09375 0  0.40625 0.09375 0  0.4375 0.09375 0  0.46875 0.09375 0  0.5 0.09375 0  0.53125 0.09375 0  0.5625 0.09375 0  0.59375 0.09375 0  0.625 0.09375 0  0.65625 0.09375 0  0.6875 0.09375 0  0.71875 0.09375 0  0.75 0.09375 0  0.78125 0.09375 0  0.8125 0.09375 0  0.84375 0.09375 0  0.875 0.09375 0  0.90625 0.09375 0  0.9375 0.09375 0  0.96875 0.09375 0  1 0.09375 0  0 0.125 0  0.03125 0.125 0  0.0625 0.125 0  0.09375 0.125 0  0.125 0.125 0  0.15625 0.125 0  0.1875 0.125 0  0.21875 0.125 0  0.25 0.125 0  0.28125 0.125 0  0.3125 0.125 0  0.34375 0.125 0  0.375 0.125 0  0.40625 0.125 0  0.4375 0.125 0  0.46875 0.125 0  0.5 0.125 0  0.53125 0.125 0  0.5625 0.125 0  0.59375 0.125 0  0.625 0.125 0  0.65625 0.125 0  0.6875 0.125 0  0.71875 0.125 0  0.75 0.125 0  0.78125 0.125 0  0.8125 0.125 0  0.84375 0.125 0  0.875 0.125 0  0.90625 0.125 0  0.9375 0.125 0  0.96875 0.125 0  1 0.125 0  0 0.15625 0  0.03125 0.15625 0  0.0625 0.15625 0  0.09375 0.15625 0  0.125 0.15625 0  0.15625 0.15625 0  0.1875 0.15625 0  0.21875 0.15625 0  0.25 0.15625 0  0.28125 0.15625 0  0.3125 0.15625 0  0.34375 0.15625 0  0.375 0.15625 0  0.40625 0.15625 0  0.4375 0.15625 0  0.46875 0.15625 0  0.5 0.15625 0  0.53125 0.15625 0  0.5625 0.15625 0  0.59375 0.15625 0  0.625 0.15625 0  0.65625 0.15625 0  0.6875 0.15625 0  0.71875 0.15625 0  0.75 0.15625 0  0.78125 0.15625 0  0.8125 0.15625 0  0.84375 0.15625 0  0.875 0.15625 0  0.90625 0.15625 0  0.9375 0.15625 0  0.96875 0.15625 0  1 0.15625 0  0 0.1875 0  0.03125 0.1875 0  0.0625 0.1875 0  0.09375 0.1875 0  0.125 0.1875 0  0.15625 0.1875 0  0.1875 0.1875 0  0.21875 0.1875 0  0.25 0.1875 0  0.28125 0.1875 0  0.3125 0.1875 0  0.34375 0.1875 0  0.375 0.1875 0  0.40625 0.1875 0  0.4375 0.1875 0  0.46875 0.1875 0  0.5 0.1875 0  0.53125 0.1875 0  0.5625 0.1875 0  0.59375 0.1875 0  0.625 0.1875 0  0.65625 0.1875 0  0.6875 0.1875 0  0.71875 0.1875 0  0.75 0.1875 0  0.78125 0.1875 0  0.8125 0.1875 0  0.84375 0.1875 0  0.875 0.1875 0  0.90625 0.1875 0  0.9375 0.1875 0  0.96875 0.1875 0  1 0.1875 0  0 0.21875 0  0.03125 0.21875 0  0.0625 0.21875 0  0.09375 0.21875 0  0.125 0.21875 0  0.15625 0.21875 0  0.1875 0.21875 0  0.21875 0.21875 0  0.25 0.21875 0  0.28125 0.21875 0  0.3125 0.21875 0  0.34375 0.21875 0  0.375 0.21875 0  0.40625 0.21875 0  0.4375 0.21875 0  0.46875 0.21875 0  0.5 0.21875 0  0.53125 0.21875 0  0.5625 0.21875 0  0.59375 0.21875 0  0.625 0.21875 0  0.65625 0.21875 0  0.6875 0.21875 0  0.71875 0.21875 0  0.75 0.21875 0  0.78125 0.21875 0  0.8125 0.21875 0  0.84375 0.21875 0  0.875 0.21875 0  0.90625 0.21875 0  0.9375 0.21875 0  0.96875 0.21875 0  1 0.21875 0  0 0.25 0  0.03125 0.25 0  0.0625 0.25 0  0.09375 0.25 0  0.125 0.25 0  0.15625 0.25 0  0.1875 0.25 0  0.21875 0.25 0  0.25 0.25 0  0.28125 0.25 0  0.3125 0.25 0  0.34375 0.25 0  0.375 0.25 0  0.40625 0.25 0  0.4375 0.25 0  0.46875 0.25 0  0.5 0.25 0  0.53125 0.25 0  0.5625 0.25 0  0.59375 0.25 0  0.625 0.25 0  0.65625 0.25 0  0.6875 0.25 0  0.71875 0.25 0  0.75 0.25 0  0.78125 0.25 0  0.8125 0.25 0  0.84375 0.25 0  0.875 0.25 0  0.90625 0.25 0  0.9375 0.25 0  0.96875 0.25 0  1 0.25 0  0 0.28125 0  0.03125 0.28125 0  0.0625 0.28125 0  0.09375 0.28125 0  0.125 0.28125 0  0.15625 0.28125 0  0.1875 0.28125 0  0.21875 0.28125 0  0.25 0.28125 0  0.28125 0.28125 0  0.3125 0.28125 0  0.34375 0.28125 0  0.375 0.28125 0  0.40625 0.28125 0  0.4375 0.28125 0  0.46875 0.28125 0  0.5 0.28125 0  0.53125 0.28125 0  0.5625 0.28125 0  0.59375 0.28125 0  0.625 0.28125 0  0.65625 0.28125 0  0.6875 0.28125 0  0.71875 0.28125 0  0.75 0.28125 0  0.78125 0.28125 0  0.8125 0.28125 0  0.84375 0.28125 0  0.875 0.28125 0  0.90625 0.28125 0  0.9375 0.28125 0  0.96875 0.28125 0  1 0.28125 0  0 0.3125 0  0.03125 0.3125 0  0.0625 0.3125 0  0.09375 0.3125 0  0.125 0.3125 0  0.15625 0.3125 0  0.1875 0.3125 0  0.21875 0.3125 0  0.25 0.3125 0  0.28125 0.3125 0  0.3125 0.3125 0  0.34375 0.3125 0  0.375 0.3125 0  0.40625 0.3125 0  0.4375 0.3125 0  0.46875 0.3125 0  0.5 0.3125 0  0.53125 0.3125 0  0.5625 0.3125 0  0.59375 0.3125 0  0.625 0.3125 0  0.65625 0.3125 0  0.6875 0.3125 0  0.71875 0.3125 0  0.75 0.3125 0  0.78125 0.3125 0  0.8125 0.3125 0  0.84375 0.3125 0  0.875 0.3125 0  0.90625 0.3125 0  0.9375 0.3125 0  0.96875 0.3125 0  1 0.3125 0  0 0.34375 0  0.03125 0.34375 0  0.0625 0.34375 0  0.09375 0.34375 0  0.125 0.34375 0  0.15625 0.34375 0  0.1875 0.34375 0  0.21875 0.34375 0  0.25 0.34375 0  0.28125 0.34375 0  0.3125 0.34375 0  0.34375 0.34375 0  0.375 0.34375 0  0.40625 0.34375 0  0.4375 0.34375 0  0.46875 0.34375 0  0.5 0.34375 0  0.53125 0.34375 0  0.5625 0.34375 0  0.59375 0.34375 0  0.625 0.34375 0  0.65625 0.34375 0  0.6875 0.34375 0  0.71875 0.34375 0  0.75 0.34375 0  0.78125 0.34375 0  0.8125 0.34375 0  0.84375 0.34375 0  0.875 0.34375 0  0.90625 0.34375 0  0.9375 0.34375 0  0.96875 0.34375 0  1 0.34375 0  0 0.375 0  0.03125 0.375 0  0.0625 0.375 0  0.09375 0.375 0  0.125 0.375 0  0.15625 0.375 0  0.1875 0.375 0  0.21875 0.375 0  0.25 0.375 0  0.28125 0.375 0  0.3125 0.375 0  0.34375 0.375 0  0.375 0.375 0  0.40625 0.375 0  0.4375 0.375 0  0.46875 0.375 0  0.5 0.375 0  0.53125 0.375 0  0.5625 0.375 0  0.59375 0.375 0  0.625 0.375 0  0.65625 0.375 0  0.6875 0.375 0  0.71875 0.375 0  0.75 0.375 0  0.78125 0.375 0  0.8125 0.375 0  0.84375 0.375 0  0.875 0.375 0  0.90625 0.375 0  0.9375 0.375 0  0.96875 0.375 0  1 0.375 0  0 0.40625 0  0.03125 0.40625 0  0.0625 0.40625 0  0.09375 0.40625 0  0.125 0.40625 0  0.15625 0.40625 0  0.1875 0.40625 0  0.21875 0.40625 0  0.25 0.40625 0  0.28125 0.40625 0  0.3125 0.40625 0  0.34375 0.40625 0  0.375 0.40625 0  0.40625 0.40625 0  0.4375 0.40625 0  0.46875 0.40625 0  0.5 0.40625 0  0.53125 0.40625 0  0.5625 0.40625 0  0.59375 0.40625 0  0.625 0.40625 0  0.65625 0.40625 0  0.6875 0.40625 0  0.71875 0.40625 0  0.75 0.40625 0  0.78125 0.40625 0  0.8125 0.40625 0  0.84375 0.40625 0  0.875 0.40625 0  0.90625 0.40625 0  0.9375 0.40625 0  0.96875 0.40625 0  1 0.40625 0  0 0.4375 0  0.03125 0.4375 0  0.0625 0.4375 0  0.09375 0.4375 0  0.125 0.4375 0  0.15625 0.4375 0  0.1875 0.4375 0  0.21875 0.4375 0  0.25 0.4375 0  0.28125 0.4375 0  0.3125 0.4375 0  0.34375 0.4375 0  0.375 0.4375 0  0.40625 0.4375 0  0.4375 0.4375 0  0.46875 0.4375 0  0.5 0.4375 0  0.53125 0.4375 0  0.5625 0.4375 0  0.59375 0.4375 0  0.625 0.4375 0  0.65625 0.4375 0  0.6875 0.4375 0  0.71875 0.4375 0  0.75 0.4375 0  0.78125 0.4375 0  0.8125 0.4375 0  0.84375 0.4375 0  0.875 0.4375 0  0.90625 0.4375 0  0.9375 0.4375 0  0.96875 0.4375 0  1 0.4375 0  0 0.46875 0  0.03125 0.46875 0  0.0625 0.46875 0  0.09375 0.46875 0  0.125 0.46875 0  0.15625 0.46875 0  0.1875 0.46875 0  0.21875 0.46875 0  0.25 0.46875 0  0.28125 0.46875 0  0.3125 0.46875 0  0.34375 0.46875 0  0.375 0.46875 0  0.40625 0.46875 0  0.4375 0.46875 0  0.46875 0.46875 0  0.5 0.46875 0  0.53125 0.46875 0  0.5625 0.46875 0  0.59375 0.46875 0  0.625 0.46875 0  0.65625 0.46875 0  0.6875 0.46875 0  0.71875 0.46875 0  0.75 0.46875 0  0.78125 0.46875 0  0.8125 0.46875 0  0.84375 0.46875 0  0.875 0.46875 0  0.90625 0.46875 0  0.9375 0.46875 0  0.96875 0.46875 0  1 0.46875 0  0 0.5 0  0.03125 0.5 0  0.0625 0.5 0  0.09375 0.5 0  0.125 0.5 0  0.15625 0.5 0  0.1875 0.5 0  0.21875 0.5 0  0.25 0.5 0  0.28125 0.5 0  0.3125 0.5 0  0.34375 0.5 0  0.375 0.5 0  0.40625 0.5 0  0.4375 0.5 0  0.46875 0.5 0  0.5 0.5 0  0.53125 0.5 0  0.5625 0.5 0  0.59375 0.5 0  0.625 0.5 0  0.65625 0.5 0  0.6875 0.5 0  0.71875 0.5 0  0.75 0.5 0  0.78125 0.5 0  0.8125 0.5 0  0.84375 0.5 0  0.875 0.5 0  0.90625 0.5 0  0.9375 0.5 0  0.96875 0.5 0  1 0.5 0  0 0.53125 0  0.03125 0.53125 0  0.0625 0.53125 0  0.09375 0.53125 0  0.125 0.53125 0  0.15625 0.53125 0  0.1875 0.53125 0  0.21875 0.53125 0  0.25 0.53125 0  0.28125 0.53125 0  0.3125 0.53125 0  0.34375 0.53125 0  0.375 0.53125 0  0.40625 0.53125 0  0.4375 0.53125 0  0.46875 0.53125 0  0.5 0.53125 0  0.53125 0.53125 0  0.5625 0.53125 0  0.59375 0.53125 0  0.625 0.53125 0  0.65625 0.53125 0  0.6875 0.53125 0  0.71875 0.53125 0  0.75 0.53125 0  0.78125 0.531
[...]
<CellData  Scalars="f_64758"> 
<DataArray  type="Float64"  Name="f_64758"  format="ascii">4.6092180286283697e-12   5.1165291010581802e-12   2.2515232427127022e-13   6.1157952239372720e-13   3.1662655372653571e-14   6.2362106829993197e-14   8.8742547399608916e-15   1.7280447345257747e-14   4.8819033740671587e-15   8.3142185737264692e-15   3.6862726363529432e-15   5.8716067170458758e-15   3.0070786550934451e-15   4.9473762506748123e-15   2.5561242474456607e-15   4.3552298730069102e-15   2.3778668400488229e-15   3.9231036975716608e-15   2.5358012282992392e-15   3.7172136042170394e-15   3.0513957386663610e-15   3.8179385159531319e-15   3.9010315523199610e-15   4.2639214192178206e-15   5.0265690966306513e-15   5.0470714555147609e-15   6.3479835677466666e-15   6.1219714022371844e-15   7.7750304438714891e-15   7.4181340411749040e-15   9.2173422145880762e-15   8.8515663681654080e-15   1.0593073104182041e-14   1.0334736362330553e-14   1.1836406086942355e-14   1.1784862877862925e-14   1.2904302901249296e-14   1.3130639813389781e-14   1.3782983095706541e-14   1.4317473009816206e-14   1.4494931303094413e-14   1.5311227200863329e-14   1.5108114023667891e-14   1.6100529200453559e-14   1.5751529107013196e-14   1.6698352418085849e-14   1.6648145640051651e-14   1.7146710398212038e-14   1.8196806240528141e-14   1.7540593845678764e-14   2.1197622335306836e-14   1.8135912862260613e-14   2.7508627430382462e-14   1.9807329686410647e-14   4.1938180692613559e-14   2.6002577564310178e-14   7.6786479321436247e-14   5.1267447910043134e-14   1.6246923712344049e-13   1.5643849551478350e-13   8.7486728412719522e-13   5.2304900818708050e-13   7.6548612382123939e-11   2.4862957636357335e-12   8.0766436475616128e-13   3.8864684226967024e-13   1.6394791719136373e-13   1.5658596018581911e-13   5.9288059751729659e-14   9.8150959991478227e-14   2.7325163777977347e-14   4.6538304095364037e-14   1.3829153598247000e-14   2.0131237534365034e-14   8.1883969070431356e-15   1.0202530844210408e-14   5.4362768245806643e-15   5.9958486199990124e-15   3.9083169600936474e-15   3.9120088948664581e-15   3.0748194942960160e-15   2.8312578826480370e-15   2.7584322673778411e-15   2.3900416545827890e-15   2.8815359168772722e-15   2.4573065545292073e-15   3.3854202816804978e-15   2.9646043296695530e-15   4.2067103718749275e-15   3.8496013497874413e-15   5.2736922985074336e-15   5.0399233985637835e-15   6.5095462678745966e-15   6.4520742476844700e-15   7.8377006431973560e-15   7.9957826759749929e-15   9.1874688401143339e-15   9.5798471073843875e-15   1.0499223659834784e-14   1.1117782290157705e-14   1.1728744317441183e-14   1.2532455953713407e-14   1.2850441812288988e-14   1.3759235184351417e-14   1.3859053351899655e-14   1.4747313496060162e-14   1.4769063535996952e-14   1.5459182539975536e-14   1.5610282018594448e-14   1.5869293976908398e-14   1.6415678739362329e-14   1.5966610045596683e-14   1.7190472310156137e-14   1.5776981051323247e-14   1.7832228327387718e-14   1.5452798844629832e-14   1.7966337904619025e-14   1.5549109233482400e-14   1.7343766210711704e-14   1.7652673033973542e-14   2.7241864519243613e-14   2.4730133274789353e-14   2.0256941874192290e-13   3.7052300709054649e-14   1.6659142822997315e-12   9.3910630410507439e-14   1.4727803247435277e-12   8.5731949851173723e-13   1.1807736463996921e-13   8.8761000072649585e-14   1.3127780699863982e-13   8.5522970046908629e-14   5.5265084942841703e-14   5.0305757398078432e-14   2.9170240001818979e-14   3.9013716571268173e-14   1.6868540749429093e-14   2.4701054854296600e-14   9.7981581393012114e-15   1.3828556659581390e-14   5.6878050634118973e-15   7.4504329407773421e-15   3.3388578463579100e-15   3.9622252440749270e-15   2.1022525364199237e-15   2.1665348956417360e-15   1.6385866429780468e-15   1.4363075169640458e-15   1.7570545333791186e-15   1.4502806188632087e-15   2.3302491445481260e-15   2.0225374784378775e-15   3.2549325764922611e-15   3.0209116911079714e-15   4.4362979812961335e-15   4.3319651153797807e-15   5.7833970033615507e-15   5.8480225313097066e-15   7.2094989334812687e-15   7.4642311681995031e-15   8.6342207278884236e-15   9.0798174624153838e-15   9.9856913544164801e-15   1.0600629057145807e-14   1.1201568742047631e-14   1.1941411498347940e-14   1.2227762696374743e-14   1.3026916711076520e-14   1.3013328143147814e-14   1.3791311389506908e-14   1.3499134040168001e-14   1.4175766750663122e-14   1.3596653101565826e-14   1.4124955680232378e-14   1.3153168285627130e-14   1.3585022056429386e-14   1.1911908917880370e-14   1.2508787737925320e-14   9.5615735309158579e-15   1.0876379315241468e-14   6.4361592960513230e-15   8.7328675915295215e-15   7.5568734330250586e-15   6.2763485235038975e-15   3.9179106389765426e-14   4.9853450050068376e-15   1.7613723666151481e-13   1.8786148140777085e-14   3.6464306643943484e-13   1.2461611983435847e-13   4.0515116622718073e-13   4.1427121640099412e-13   3.7748759797118537e-14   3.1430462814331429e-14   6.4032524307082402e-14   4.1049177577683897e-14   4.6184459369141734e-14   2.9750593118417097e-14   2.6811963987512649e-14   2.4050302754357137e-14   1.6038041049429617e-14   1.8600256493392926e-14   9.5157530849473643e-15   1.2296438154334899e-14   5.3594780722904794e-15   7.0863674659764509e-15   2.8192899459340075e-15   3.6181586728506568e-15   1.4541899149411690e-15   1.6667261830997193e-15   9.6303593240225590e-16   8.5890201600193070e-16   1.1314471743599423e-15   8.9084648521639294e-16   1.7968170962658390e-15   1.5381204327174518e-15   2.8251811710205640e-15   2.6273537927842389e-15   4.0982854977148804e-15   4.0134587622647492e-15   5.5076547415072073e-15   5.5671647244094834e-15   6.9526297767627448e-15   7.1698085202763434e-15   8.3401087787479704e-15   8.7120932117525304e-15   9.5843635979127107e-15   1.0094508448378609e-14   1.0605666292108588e-14   1.1227946531597579e-14   1.1326608883032802e-14   1.2033628780930872e-14   1.1665130204831406e-14   1.2441907113792282e-14   1.1523969406766493e-14   1.2390019006957450e-14   1.0779543546571845e-14   1.1819730083411191e-14   9.2858173443193380e-15   1.0677569765794488e-14   6.9519769428067541e-15   8.9250020499235579e-15   4.0857852087951204e-15   6.5828525260491783e-15   2.5199280826860282e-15   3.9116957824080098e-15   8.3259150212734782e-15   2.1732602432970257e-15   3.4202386069158099e-14   6.5548645429771541e-15   8.5992546185266550e-14   3.3727915636037282e-14   1.3702174098751380e-13   1.1164734671559233e-13   2.2085747698907593e-13   2.1420634553005210e-13   1.6778536043171998e-14   1.4557126599910918e-14   2.6145271210898234e-14   1.8664662227411698e-14   2.7740398091386861e-14   1.6746994526728232e-14   2.0099667735618828e-14   1.4109429614768047e-14   1.2872996397500355e-14   1.1588296580286325e-14   7.7422033591493583e-15   8.4067711546480108e-15   4.2796884388520979e-15   5.1721897107848616e-15   2.1007684980825110e-15   2.6481727882669283e-15   9.4744599853719883e-16   1.1139099455669423e-15   6.1130763980949423e-16   5.1683799724750544e-16   9.1082295020402836e-16   6.8613062913482218e-16   1.6855919384747292e-15   1.4341985582252757e-15   2.7921158717174394e-15   2.5873750276582017e-15   4.1001463425440220e-15   3.9902467378046477e-15   5.4903262643394096e-15   5.5036530855807291e-15   6.8530191886984391e-15   7.0026991654076621e-15   8.0876899256089678e-15   8.3759275155470972e-15   9.1020892934172946e-15   9.5252676405366146e-15   9.8106334497423036e-15   1.0366159387111005e-14   1.0131758057350966e-14   1.0827456505420042e-14   9.9850001040409758e-15   1.0851144595281831e-14   9.2910889706949914e-15   1.0392665650908160e-14   7.9848111718579215e-15   9.4242300385840906e-15   6.0660441108878396e-15   7.9474421040332092e-15   3.7472666937042838e-15   6.0326426385077123e-15   1.8034465998886033e-15   3.9348836830297007e-15   2.2025768218641814e-15   2.4246059416066822e-15   8.6048623036904060e-15   3.6403515091556536e-15   2.4884722126755816e-14   1.2707400352624679e-14   5.0850738128754266e-14   3.8263804257386743e-14   8.7291290351841475e-14   8.3723952292227619e-14   1.3701650308376936e-13   1.2783749462488668e-13   9.1736136414284974e-15   8.4482995388202456e-15   1.1261584101668314e-14   9.0467175112943007e-15   1.3836003418313031e-14   8.7248001042771503e-15   1.2113921589241782e-14   7.7227975513406301e-15   8.5542131340065638e-15   6.4381949798385838e-15   5.2627114344080210e-15   4.7966766846091047e-15   2.8289307080138161e-15   3.0100130739777140e-15   1.2904370720589899e-15   1.5155270421383013e-15   5.5670991951660393e-16   6.1459007279333022e-16   5.0232989005749942e-16   3.8734560156086314e-16   9.8840834524818779e-16   7.6710214120737133e-16   1.8733915987585092e-15   1.6214809233555815e-15   3.0198155813311959e-15   2.7998711086003632e-15   4.2980039160835337e-15   4.1549171568030305e-15   5.5879528251218971e-15   5.5509145284551714e-15   6.7803070019154037e-15   6.8669089275678854e-15   7.7768145256511804e-15   7.9979836644290051e-15   8.4903882500751578e-15   8.8559942109831635e-15   8.8450031162596194e-15   9.3701497803460467e-15   8.7762290288731552e-15   9.4877234304079157e-15   8.2345461854165181e-15   9.1755435265815684e-15   7.1963672106955745e-15   8.4238874127270584e-15   5.6928816687285905e-15   7.2565592147244705e-15   3.8748294227763186e-15   5.7558435751858330e-15   2.1374687553751837e-15   4.1220000197025595e-15   1.3115872596671460e-15   2.8084246257095369e-15   2.8247601754086486e-15   2.7986556410970803e-15   8.5181761469362076e-15   6.0439121940480047e-15   1.9856360268487354e-14   1.5685052437437560e-14   3.7647943562251447e-14   3.4621959559392567e-14   6.3499349860879341e-14   6.0813854861052377e-14   9.1859341303282597e-14   8.4173962428923733e-14   6.6252095884881831e-15   6.6253110794856558e-15   5.6269562970933261e-15   5.3513488368907338e-15   6.3812963856700912e-15   4.6154577484550213e-15   6.1274097686431813e-15   3.9921007012108749e-15   4.6637616302697387e-15   3.2446477008686100e-15   2.9121587949508238e-15   2.3531646042446410e-15   1.4967779048386786e-15   1.4339499415792607e-15   6.4461170151824084e-16   7.1185104562000615e-16   3.7848555167171974e-16   3.8032732500113113e-16   6.3262131096436054e-16   5.1883918152540201e-16   1.3020039462534114e-15   1.0990715647637259e-15   2.2654006181540702e-15   2.0258366069614786e-15   3.3981768998687545e-15   3.1745147792008661e-15   4.5799966373861537e-15   4.4150941464579820e-15   5.6994954237394544e-15   5.6252811836875117e-15   6.6571463992749875e-15   6.6971302596671874e-15   7.3671163848373199e-15   7.5403796749106573e-15   7.7587410078201921e-15   8.0842906442550520e-15   7.7783833410170959e-15   8.2789871041110206e-15   7.3929706153236726e-15   8.0970753016767076e-15   6.5975486177127068e-15   7.5366129462361374e-15   5.4308223489308021e-15   6.6273955067439589e-15   4.0044798563718464e-15   5.4443936550212372e-15   2.5521421335218246e-15   4.1356148819470350e-15   1.4962838126227178e-15   2.9767905130983201e-15   1.5060815928511048e-15   2.4681776156798137e-15   3.4745317082338171e-15   3.4706121057116482e-15   8.3395955976298083e-15   7.2881727133378761e-15   1.6862972558512781e-14   1.5389625007554090e-14   2.9691835593173660e-14   2.8308098185129697e-14   4.7046435933853676e-14   4.4002254809453747e-14   6.4438501153663818e-14   5.8188175698824079e-14   6.6258342714052270e-15   7.0430058504793419e-15   4.0581695819773038e-15   4.6079740248410436e-15   3.2548038667029764e-15   3.1334456193676547e-15   2.8468196447110876e-15   2.3115927240779499e-15   2.1547407318788804e-15   1.6914993714843720e-15   1.3232447131475110e-15   1.1456898963501271e-15   6.6989721093377979e-16   7.0594309634636875e-16   3.8372569905858874e-16   4.7285275944324877e-16   5.1249169423102101e-16   5.3931526704525652e-16   1.0163098882012642e-15   9.4083023731778270e-16   1.8100031497380919e-15   1.6468334441724655e-15   2.7884363295367208e-15   2.5780661894771387e-15   3.8414416236398216e-15   3.6301184458524804e-15   4.8629789744898044e-15   4.6927165782194329e-15   5.7569551564470514e-15   5.6625317096798469e-15   6.4410611927377658e-15   6.4507851163473406e-15   6.8495400326920475e-15   6.9875347530001407e-15   6.9356586515963900e-15   7.2241526978043997e-15   6.6747493021585033e-15   7.1350828476513483e-15   6.0689788843996323e-15   6.7198084554338989e-15   5.1554276809453416e-15   6.0061380760028652e-15   4.0193348296362102e-15   5.0564837934319707e-15   2.8137497936497838e-15   3.9797858465474744e-15   1.7837666253867643e-15   2.9528695785119968e-15   1.2859991391833203e-15   2.2548087240089172e-15   1.7827765830496850e-15   2.3114268279166077e-15   3.7881563082091543e-15   3.7237306614110869e-15   7.7776062947454619e-15   7.2035951935866048e-15   1.4137107930988126e-14   1.3291423096987779e-14   2.3145053456503871e-14   2.1826045362903597e-14   3.4631205276666498e-14   3.1547982014501901e-14   4.5988104027473011e-14   4.0736122687834912e-14   8.1211704715299706e-15   8.7664276782198056e-15   4.5812748636243618e-15   5.4641719874636838e-15   2.6948142816768991e-15   3.3020585740290646e-15   1.7642382199224246e-15   2.1108373782468050e-15   1.1705873528889227e-15   1.4080964310442592e-15   7.4103609888600063e-16   9.8080553536014939e-16   5.3101174466535505e-16   7.7631528721403203e-16   6.1186107634481452e-16   8.0772396291355403e-16   9.9607401260154109e-16   1.0931542771964752e-15   1.6397877121857257e-15   1.6230424377825745e-15   2.4645438133699965e-15   2.3515343005672409e-15   3.3765521500329361e-15   3.2040345118649627e-15   4.2799897177485409e-15   4.0911068913506712e-15   5.0856619605401081e-15   4.9219138093600078e-15   5.7166631278218070e-15   5.6143979399943544e-15   6.1122160269536524e-15   6.1019880267091073e-15   6.2305286418124373e-15   6.3376346626651148e-15   6.0513521022446402e-15   6.2961500737513566e-15   5.5789009857756331e-15   5.9757221575398162e-15   4.8458139027984602e-15   5.3993972414486640e-15   3.9187360687897069e-15   4.6173843265402329e-15   2.9056116949394336e-15   3.7112172144901908e-15   1.9634418636261856e-15   2.8009607527628705e-15   1.3027121997610688e-15   2.0562353066388882e-15   1.1814958486671530e-15   1.7095230970857313e-15   1.8817571553204011e-15   2.0635485709371770e-15   3.6694969888768142e-15   3.4714187370934319e-15   6.7607765868761518e-15   6.2542815013360062e-15   1.1318886600430650e-14   1.0533982077989744e-14   1.7439238511749617e-14   1.6044295748416732e-14   2.5014967497794680e-14   2.2119277867525981e-14   3.2681583697961143e-14   2.8152125144639279e-14   1.0498948044914188e-14   1.1208401305692937e-14   6.2644318259567964e-15   7.1864603556493441e-15   3.6293967677094406e-15   4.4547180259390982e-15   2.1899103635938066e-15   2.8935303343208360e-15   1.4368505265750844e-15   2.0275263779889852e-15   1.0935233256731611e-15   1.5922080743924777e-15   1.0621372589969027e-15   1.4667069927372831e-15   1.3076549483933396e-15   1.5981530188281416e-15   1.7902783982858201e-15   1.9510042079345633e-15   2.4476252301143260e-15   2.4814423403355459e-15   3.2003397374209726e-15   3.1298292985674266e-15   3.9631358514598470e-15   3.8240700935033177e-15   4.6543773412413391e-15   4.4877740799242725e-15   5.2029150893334471e-15   5.0489771551810562e-15   5.5526669025273377e-15   5.4472715552815961e-15   5.6656784596190635e-15   5.6387432903002089e-15   5.5242825230702027e-15   5.5989424860531725e-15   5.1328315467548400e-15   5.3244105730691911e-15   4.5193584376311481e-15   4.8333322157004331e-15   3.7373558419463506e-15   4.1658515701999827e-15   2.8675407361160953e-15   3.3845620602865900e-15   2.0188555243958180e-15   2.5756107832368674e-15   1.3270012252416958e-15   1.8505828626477805e-15   9.4781526292169245e-16   1.3484704058933537e-15   1.0429285542083615e-15   1.2349866943828104e-15   1.7584543147051826e-15   1.6928534943163156e-15   3.2051752883225597e-15   2.8928313509455593e-15   5.4555254725996782e-15   4.9372826641271751e-15   8.5630284805670199e-15   7.7875251661813403e-15   1.2577443289089591e-14   1.1227697285829333e-14   1.7528130689656952e-14   1.4942104192978608e-14   2.2751082101613500e-14   1.8818899353938887e-14   1.3303712928472137e-14   1.3922265897044562e-14   8.5492200199725671e-15   9.2990902873293384e-15   5.3922306997237002e-15   6.1251065875807495e-15   3.5455032091046834e-15   4.2563302245804532e-15   2.5664955077998455e-15   3.2165493061448737e-15   2.1474334785257227e-15   2.7079268886436538e-15   2.1127656747826335e-15   2.5605031128575413e-15   2.3567735509005664e-15   2.6740913939521223e-15   2.7962873958970469e-15   2.9768035210194417e-15   3.3503496046142081e-15   3.4031359677626393e-15   3.9376860608672668e-15   3.8864401257273937e-15   4.4812852866887863e-15   4.3597230832040248e-15   4.9140172701718429e-15   4.7601525558127904e-15   5.1830968306018819e-15   5.0343063326159166e-15   5.2530684303565047e-15   5.1425955596122524e-15   5.1075879927821667e-15   5.0622666566426694e-15   4.7503446077557915e-15   4.7889546439973032e-15   4.2053692926172851e-15   4.3370227031530951e-15   3.5168293062934145e-15   3.7390042993933488e-15   2.7481992461688348e-15   3.0444566056368060e-15   1.9804011752991615e-15   2.3184713247510751e-15   1.3081269513034648e-15   1.6399414294118085e-15   8.3325561055054845e-16   1.0993525562041513e-15   6.5449742316694113e-16   7.9521188864079090e-16   8.5388470273884768e-16   8.2718420621645260e-16   1.4840726600417968e-15   1.2829841978923599e-15   2.5645677929412791e-15   2.2166441901661030e-15   4.0955585862453275e-15   3.6209808486630833e-15   6.0893284044239242e-15   5.4092750294556863e-15   8.6051628874903217e-15   7.4354446589247391e-15   1.1776767937238606e-14   9.5772304793320276e-15   1.5320499855082594e-14   1.1948172079599094e-14   1.6156891966560068e-14   1.6544152500504099e-14   1.1036905879902432e-14   1.1455251722812743e-14   7.5306472559106246e-15   7.9713959266615036e-15   5.3873600075056392e-15   5.8799469599207181e-15   4.1914335299191801e-15   4.6899393446603535e-15   3.6243655858706967e-15   4.0791471981350340e-15   3.4742977308508789e-15   3.8453467784011642e-15   3.5970328848854395e-15   3.8583898283899720e-15   3.8834233767183754e-15   4.0254187475596099e-15   4.2418876202040827e-15   4.2711318087978116e-15   4.5928629675051616e-15   4.5296014682039016e-15   4.8693601556920250e-15   4.7429570664244838e-15   5.0193609628874118e-15   4.8632305197482688e-15   5.0079827700663953e-15   4.8550293238030697e-15   4.8187420635831919e-15   4.6977794527619650e-15   4.4538651544398733e-15   4.3869874190904595e-15   3.9337555858223207e-15   3.9343826849267087e-15   3.2956919765168661e-15   3.3670128113337348e-15   2.5917178308528011e-15   2.7254508121614067e-15   1.8855377602847175e-15   2.0612865016467391e-15   1.2480837438768229e-15   1.4340299756545328e-15   7.5134190478474239e-16   9.0744558952173472e-16   4.6021898188461404e-16   5.4513268754228122e-16   4.2297408630862277e-16   4.0487700463476118e-16   6.6231298498272391e-16   5.3105426010134954e-16   1.1714496258339770e-15   9.4463486173266577e-16   1.9210020286783052e-15   1.6320040004448501e-15   2.8811279618469694e-15   2.5377658455278010e-15   4.0575503576710512e-15   3.5723027909946025e-15   5.5339319821513057e-15   4.6480380314306837e-15   7.5109449207988033e-15   5.7516667286157089e-15   9.9107462918738226e-15   7.1011457604905656e-15   1.8740435020800708e-14   1.8780653380644438e-14   1.3418655956063095e-14   1.3392000549286821e-14   9.7142305407066150e-15   9.7373548750440487e-15   7.3784878001586400e-15   7.5158134644180190e-15   6.0016177376785728e-15   6.2141666081385852e-15   5.2614482754848282e-15   5.4932179534222870e-15   4.9329613264958390e-15   5.1334357562723372e-15   4.8572256078340122e-15   4.9907331528148947e-15   4.9161996832623553e-15   4.9651843365450337e-15   5.0179240820564769e-15   4.9822398788936852e-15   5.0900370335362062e-15   4.9835981255020337e-15   5.0780407357722749e-15   4.9240671380015164e-15   4.9454142670012889e-15   4.7713808760585942e-15   4.6738933626084042e-15   4.5069714087042223e-15   4.26318488