<?xml version="1.0"?>
<VTKFile type="UnstructuredGrid"  version="0.1"  >
<UnstructuredGrid>
<Piece  NumberOfPoints="25" NumberOfCells="32">
<Points>
<DataArray  type="Float64"  NumberOfComponents="3"  format="ascii">0 0 0  0.25 0 0  0.5 0 0  0.75 0 0  1 0 0  0 0.25 0  0.25 0.25 0  0.5 0.25 0  0.75 0.25 0  1 0.25 0  0 0.5 0  0.25 0.5 0  0.5 0.5 0  0.75 0.5 0  1 0.5 0  0 0.75 0  0.25 0.75 0  0.5 0.75 0  0.75 0.75 0  1 0.75 0  0 1 0  0.25 1 0  0.5 1 0  0.75 1 0  1 1 0  </DataArray>
</Points>
<Cells>
<DataArray  type="UInt32"  Name="connectivity"  format="ascii">0 1 6  0 5 6  1 2 7  1 6 7  2 3 8  2 7 8  3 4 9  3 8 9  5 6 11  5 10 11  6 7 12  6 11 12  7 8 13  7 12 13  8 9 14  8 13 14  10 11 16  10 15 16  11 12 17  11 16 17  12 13 18  12 17 18  13 14 19  13 18 19  15 16 21  15 20 21  16 17 22  16 21 22  17 18 23  17 22 23  18 19 24  18 23 24  </DataArray>
<DataArray  type="UInt32"  Name="offsets"  format="ascii">3 6 9 12 15 18 21 24 27 30 33 36 39 42 45 48 51 54 57 60 63 66 69 72 75 78 81 84 87 90 93 96 </DataArray>
<DataArray  type="UInt8"  Name="types"  format="ascii">5 5 5 5 5 5 5 5 5 5 5 5 5 5 5 5 5 5 5 5 5 5 5 5 5 5 5 5 5 5 5 5 </DataArray>
</Cells>
<CellData  Scalars="f_34475"> 
<DataArray  type="Float64"  Name="f_34475"  format="ascii">9.5049583209353333e-02   8.7725138184758814e-02   1.5139939560210895e-02   4.1742809780696638e-02   8.0434115929236147e-02   7.0896608105698436e-02   1.6140215067766742e-01   1.2397284125041609e-01   3.3865819189695723e-02   8.4078257125499486e-03   9.0623977780161222e-02   8.5971280033598566e-02   1.0668440681263748e-01   1.2042738563611222e-01   4.7294528727149274e-02   4.6006530998338777e-02   7.0648874052830712e-02   9.6464495118894225e-02   1.1468718645845345e-01   1.0528868741814087e-01   7.2739375092587003e-02   6.6681149212070787e-02   2.6747580292866099e-02   6.0831146190911400e-02   1.4108555813207055e-01   1.7500505474415862e-01   4.2544195118418053e-02   5.9868342984658929e-02   5.1025756934870901e-02   1.4907348913120727e-02   1.4795399608556645e-01   1.3959499478617982e-01   </DataArray> 
</CellData> 
</Piece>
</UnstructuredGrid>
</VTKFile>