<?xml version="1.0"?>
<VTKFile type="UnstructuredGrid"  version="0.1"  >
<UnstructuredGrid>
<Piece  NumberOfPoints="25" NumberOfCells="32">
<Points>
<DataArray  type="Float64"  NumberOfComponents="3"  format="ascii">0 0 0  0.25 0 0  0.5 0 0  0.75 0 0  1 0 0  0 0.25 0  0.25 0.25 0  0.5 0.25 0  0.75 0.25 0  1 0.25 0  0 0.5 0  0.25 0.5 0  0.5 0.5 0  0.75 0.5 0  1 0.5 0  0 0.75 0  0.25 0.75 0  0.5 0.75 0  0.75 0.75 0  1 0.75 0  0 1 0  0.25 1 0  0.5 1 0  0.75 1 0  1 1 0  </DataArray>
</Points>
<Cells>
<DataArray  type="UInt32"  Name="connectivity"  format="ascii">0 1 6  0 5 6  1 2 7  1 6 7  2 3 8  2 7 8  3 4 9  3 8 9  5 6 11  5 10 11  6 7 12  6 11 12  7 8 13  7 12 13  8 9 14  8 13 14  10 11 16  10 15 16  11 12 17  11 16 17  12 13 18  12 17 18  13 14 19  13 18 19  15 16 21  15 20 21  16 17 22  16 21 22  17 18 23  17 22 23  18 19 24  18 23 24  </DataArray>
<DataArray  type="UInt32"  Name="offsets"  format="ascii">3 6 9 12 15 18 21 24 27 30 33 36 39 42 45 48 51 54 57 60 63 66 69 72 75 78 81 84 87 90 93 96 </DataArray>
<DataArray  type="UInt8"  Name="types"  format="ascii">5 5 5 5 5 5 5 5 5 5 5 5 5 5 5 5 5 5 5 5 5 5 5 5 5 5 5 5 5 5 5 5 </DataArray>
</Cells>
<CellData  Scalars="f_34484"> 
<DataArray  type="Float64"  Name="f_34484"  format="ascii">1.2932552032203889e-02   5.4705751939005207e-03   4.0872210501494369e-03   2.3275721049177138e-03   2.9073176930189521e-03   2.9267364931529357e-03   1.1747606429224310e-02   7.0578035209752955e-03   1.0350949591866433e-02   1.6840028201160236e-05   1.0598343252761818e-02   4.9216155244307782e-03   5.4372809523213919e-03   9.4558108425234731e-03   6.1660564403685017e-03   4.6995342591724934e-03   5.2238851042710876e-03   4.6316460109118891e-03   1.0723640106087576e-02   5.8207916100924033e-03   5.4858413239761480e-03   1.1558357999819437e-02   1.1733936226677297e-04   9.4842228686217601e-03   6.2581692858150184e-03   1.1747606429224336e-02   4.2681154740914469e-03   3.6420938873152906e-03   2.9147411193065072e-03   5.6699395524811083e-03   3.9984756363454265e-03   1.3786388528334104e-02   </DataArray> 
</CellData> 
</Piece>
</UnstructuredGrid>
</VTKFile>