<?xml version="1.0"?>
<VTKFile type="UnstructuredGrid"  version="0.1"  >
<UnstructuredGrid>
<Piece  NumberOfPoints="81" NumberOfCells="128">
<Points>
<DataArray  type="Float64"  NumberOfComponents="3"  format="ascii">0 0 0  0.125 0 0  0.25 0 0  0.375 0 0  0.5 0 0  0.625 0 0  0.75 0 0  0.875 0 0  1 0 0  0 0.125 0  0.125 0.125 0  0.25 0.125 0  0.375 0.125 0  0.5 0.125 0  0.625 0.125 0  0.75 0.125 0  0.875 0.125 0  1 0.125 0  0 0.25 0  0.125 0.25 0  0.25 0.25 0  0.375 0.25 0  0.5 0.25 0  0.625 0.25 0  0.75 0.25 0  0.875 0.25 0  1 0.25 0  0 0.375 0  0.125 0.375 0  0.25 0.375 0  0.375 0.375 0  0.5 0.375 0  0.625 0.375 0  0.75 0.375 0  0.875 0.375 0  1 0.375 0  0 0.5 0  0.125 0.5 0  0.25 0.5 0  0.375 0.5 0  0.5 0.5 0  0.625 0.5 0  0.75 0.5 0  0.875 0.5 0  1 0.5 0  0 0.625 0  0.125 0.625 0  0.25 0.625 0  0.375 0.625 0  0.5 0.625 0  0.625 0.625 0  0.75 0.625 0  0.875 0.625 0  1 0.625 0  0 0.75 0  0.125 0.75 0  0.25 0.75 0  0.375 0.75 0  0.5 0.75 0  0.625 0.75 0  0.75 0.75 0  0.875 0.75 0  1 0.75 0  0 0.875 0  0.125 0.875 0  0.25 0.875 0  0.375 0.875 0  0.5 0.875 0  0.625 0.875 0  0.75 0.875 0  0.875 0.875 0  1 0.875 0  0 1 0  0.125 1 0  0.25 1 0  0.375 1 0  0.5 1 0  0.625 1 0  0.75 1 0  0.875 1 0  1 1 0  </DataArray>
</Points>
<Cells>
<DataArray  type="UInt32"  Name="connectivity"  format="ascii">0 1 10  0 9 10  1 2 11  1 10 11  2 3 12  2 11 12  3 4 13  3 12 13  4 5 14  4 13 14  5 6 15  5 14 15  6 7 16  6 15 16  7 8 17  7 16 17  9 10 19  9 18 19  10 11 20  10 19 20  11 12 21  11 20 21  12 13 22  12 21 22  13 14 23  13 22 23  14 15 24  14 23 24  15 16 25  15 24 25  16 17 26  16 25 26  18 19 28  18 27 28  19 20 29  19 28 29  20 21 30  20 29 30  21 22 31  21 30 31  22 23 32  22 31 32  23 24 33  23 32 33  24 25 34  24 33 34  25 26 35  25 34 35  27 28 37  27 36 37  28 29 38  28 37 38  29 30 39  29 38 39  30 31 40  30 39 40  31 32 41  31 40 41  32 33 42  32 41 42  33 34 43  33 42 43  34 35 44  34 43 44  36 37 46  36 45 46  37 38 47  37 46 47  38 39 48  38 47 48  39 40 49  39 48 49  40 41 50  40 49 50  41 42 51  41 50 51  42 43 52  42 51 52  43 44 53  43 52 53  45 46 55  45 54 55  46 47 56  46 55 56  47 48 57  47 56 57  48 49 58  48 57 58  49 50 59  49 58 59  50 51 60  50 59 60  51 52 61  51 60 61  52 53 62  52 61 62  54 55 64  54 63 64  55 56 65  55 64 65  56 57 66  56 65 66  57 58 67  57 66 67  58 59 68  58 67 68  59 60 69  59 68 69  60 61 70  60 69 70  61 62 71  61 70 71  63 64 73  63 72 73  64 65 74  64 73 74  65 66 75  65 74 75  66 67 76  66 75 76  67 68 77  67 76 77  68 69 78  68 77 78  69 70 79  69 78 79  70 71 80  70 79 80  </DataArray>
<DataArray  type="UInt32"  Name="offsets"  format="ascii">3 6 9 12 15 18 21 24 27 30 33 36 39 42 45 48 51 54 57 60 63 66 69 72 75 78 81 84 87 90 93 96 99 102 105 108 111 114 117 120 123 126 129 132 135 138 141 144 147 150 153 156 159 162 165 168 171 174 177 180 183 186 189 192 195 198 201 204 207 210 213 216 219 222 225 228 231 234 237 240 243 246 249 252 255 258 261 264 267 270 273 276 279 282 285 288 291 294 297 300 303 306 309 312 315 318 321 324 327 330 333 336 339 342 345 348 351 354 357 360 363 366 369 372 375 378 381 384 </DataArray>
<DataArray  type="UInt8"  Name="types"  format="ascii">5 5 5 5 5 5 5 5 5 5 5 5 5 5 5 5 5 5 5 5 5 5 5 5 5 5 5 5 5 5 5 5 5 5 5 5 5 5 5 5 5 5 5 5 5 5 5 5 5 5 5 5 5 5 5 5 5 5 5 5 5 5 5 5 5 5 5 5 5 5 5 5 5 5 5 5 5 5 5 5 5 5 5 5 5 5 5 5 5 5 5 5 5 5 5 5 5 5 5 5 5 5 5 5 5 5 5 5 5 5 5 5 5 5 5 5 5 5 5 5 5 5 5 5 5 5 5 5 </DataArray>
</Cells>
<CellData  Scalars="f_35193"> 
<DataArray  type="Float64"  Name="f_35193"  format="ascii">1.0861226721797988e-02   8.4289604296501064e-03   8.1680377303439584e-03   6.2306096265673881e-03   4.2155641598000861e-03   3.1965659921963561e-03   1.3194606221295865e-03   1.1175071431441187e-03   1.1783513387150827e-03   1.2241984994656059e-03   3.8764350655797683e-03   3.4653491190226489e-03   7.8323557772424154e-03   6.5386758537931003e-03   1.0723304703363140e-02   8.6536784787118702e-03   9.0256919243904016e-03   4.5402371397372061e-03   8.1145673971492870e-03   3.9051024967765376e-03   6.1658483561772056e-03   3.5191721742715279e-03   4.3403560853827999e-03   3.6225509986369305e-03   3.7234676902532606e-03   4.1711737757377156e-03   4.6885225510213367e-03   4.8593678103687849e-03   6.6782361555537857e-03   5.2995052539900750e-03   8.5281128112373282e-03   5.2488965633997178e-03   5.6956434700594838e-03   1.1148929933726293e-03   7.2404229077889289e-03   1.9850556315270103e-03   8.1917708867395283e-03   4.3154731523103911e-03   8.0161316183338226e-03   6.7466495776275313e-03   6.8356954711699582e-03   7.8643310461096044e-03   5.3569638723022055e-03   7.0246077759114475e-03   4.4583725341268516e-03   4.7306728212615275e-03   4.6736954564683651e-03   2.3373007838373137e-03   2.6184000525601892e-03   2.8998974492523930e-05   5.9600198733990237e-03   1.5198924625814919e-03   9.1365711342953140e-03   5.1358955147467814e-03   1.0301151485012504e-02   8.7533578449970964e-03   8.7825806359346070e-03   1.0250925597026917e-02   5.4795099266426476e-03   8.7509363615496730e-03   2.3357216467623397e-03   5.1321137336303845e-03   1.2011883998006305e-03   1.5133693783867385e-03   1.4698185678256135e-03   1.8786329053207408e-03   4.9440097589447674e-03   2.7575513596438889e-03   8.4280512259442188e-03   5.5001640975379136e-03   9.8778892681566609e-03   8.4876225466662975e-03   8.4408602408734927e-03   9.9572059211306217e-03   4.9565434667299046e-03   9.0367316307228066e-03   1.4657569151217660e-03   6.2537823671081957e-03   1.6274344849153011e-05   3.2249502461267417e-03   2.8811509224705187e-03   5.6258646308156926e-03   4.7542639855978636e-03   5.0036758021388284e-03   6.4604479601480594e-03   5.2040562503398724e-03   6.9831725128032106e-03   6.0984626228943288e-03   6.0009271663684517e-03   7.1473558314477034e-03   4.0769005177367290e-03   7.7206195507641302e-03   2.3284794876491672e-03   7.4658317435813536e-03   1.7742643768423111e-03   6.5136437352820440e-03   6.0641787480501287e-03   9.2048130084099455e-03   5.5105245148613412e-03   7.0267729718794247e-03   4.3608128638721703e-03   4.4376516556170666e-03   3.2682785999901889e-03   2.9504798532269437e-03   2.8546426161042198e-03   3.4263786593404901e-03   3.3470933402691867e-03   5.5752014497687085e-03   4.4437203055793847e-03   8.1261963276437251e-03   5.4909793154820597e-03   9.5730319905517267e-03   9.2627505874654896e-03   1.0723304703363164e-02   6.7909710318755628e-03   7.7647276888234574e-03   3.2807979944207612e-03   3.6433064376397320e-03   7.7645569212929139e-04   7.7679273548987105e-04   7.3356701673743421e-04   8.4454433853557460e-04   3.1676020207264278e-03   3.8057068130628868e-03   6.6435309844692300e-03   7.9245537149107426e-03   9.1160594888235087e-03   1.0788515705828707e-02   </DataArray> 
</CellData> 
</Piece>
</UnstructuredGrid>
</VTKFile>