<?xml version="1.0"?>
<VTKFile type="UnstructuredGrid"  version="0.1"  >
<UnstructuredGrid>
<Piece  NumberOfPoints="1089" NumberOfCells="2048">
<Points>
<DataArray  type="Float64"  NumberOfComponents="3"  format="ascii">0 0 0  0.03125 0 0  0.0625 0 0  0.09375 0 0  0.125 0 0  0.15625 0 0  0.1875 0 0  0.21875 0 0  0.25 0 0  0.28125 0 0  0.3125 0 0  0.34375 0 0  0.375 0 0  0.40625 0 0  0.4375 0 0  0.46875 0 0  0.5 0 0  0.53125 0 0  0.5625 0 0  0.59375 0 0  0.625 0 0  0.65625 0 0  0.6875 0 0  0.71875 0 0  0.75 0 0  0.78125 0 0  0.8125 0 0  0.84375 0 0  0.875 0 0  0.90625 0 0  0.9375 0 0  0.96875 0 0  1 0 0  0 0.03125 0  0.03125 0.03125 0  0.0625 0.03125 0  0.09375 0.03125 0  0.125 0.03125 0  0.15625 0.03125 0  0.1875 0.03125 0  0.21875 0.03125 0  0.25 0.03125 0  0.28125 0.03125 0  0.3125 0.03125 0  0.34375 0.03125 0  0.375 0.03125 0  0.40625 0.03125 0  0.4375 0.03125 0  0.46875 0.03125 0  0.5 0.03125 0  0.53125 0.03125 0  0.5625 0.03125 0  0.59375 0.03125 0  0.625 0.03125 0  0.65625 0.03125 0  0.6875 0.03125 0  0.71875 0.03125 0  0.75 0.03125 0  0.78125 0.03125 0  0.8125 0.03125 0  0.84375 0.03125 0  0.875 0.03125 0  0.90625 0.03125 0  0.9375 0.03125 0  0.96875 0.03125 0  1 0.03125 0  0 0.0625 0  0.03125 0.0625 0  0.0625 0.0625 0  0.09375 0.0625 0  0.125 0.0625 0  0.15625 0.0625 0  0.1875 0.0625 0  0.21875 0.0625 0  0.25 0.0625 0  0.28125 0.0625 0  0.3125 0.0625 0  0.34375 0.0625 0  0.375 0.0625 0  0.40625 0.0625 0  0.4375 0.0625 0  0.46875 0.0625 0  0.5 0.0625 0  0.53125 0.0625 0  0.5625 0.0625 0  0.59375 0.0625 0  0.625 0.0625 0  0.65625 0.0625 0  0.6875 0.0625 0  0.71875 0.0625 0  0.75 0.0625 0  0.78125 0.0625 0  0.8125 0.0625 0  0.84375 0.0625 0  0.875 0.0625 0  0.90625 0.0625 0  0.9375 0.0625 0  0.96875 0.0625 0  1 0.0625 0  0 0.09375 0  0.03125 0.09375 0  0.0625 0.09375 0  0.09375 0.09375 0  0.125 0.09375 0  0.15625 0.09375 0  0.1875 0.09375 0  0.21875 0.09375 0  0.25 0.09375 0  0.28125 0.09375 0  0.3125 0.09375 0  0.34375 0.09375 0  0.375 0.09375 0  0.40625 0.09375 0  0.4375 0.09375 0  0.46875 0.09375 0  0.5 0.09375 0  0.53125 0.09375 0  0.5625 0.09375 0  0.59375 0.09375 0  0.625 0.09375 0  0.65625 0.09375 0  0.6875 0.09375 0  0.71875 0.09375 0  0.75 0.09375 0  0.78125 0.09375 0  0.8125 0.09375 0  0.84375 0.09375 0  0.875 0.09375 0  0.90625 0.09375 0  0.9375 0.09375 0  0.96875 0.09375 0  1 0.09375 0  0 0.125 0  0.03125 0.125 0  0.0625 0.125 0  0.09375 0.125 0  0.125 0.125 0  0.15625 0.125 0  0.1875 0.125 0  0.21875 0.125 0  0.25 0.125 0  0.28125 0.125 0  0.3125 0.125 0  0.34375 0.125 0  0.375 0.125 0  0.40625 0.125 0  0.4375 0.125 0  0.46875 0.125 0  0.5 0.125 0  0.53125 0.125 0  0.5625 0.125 0  0.59375 0.125 0  0.625 0.125 0  0.65625 0.125 0  0.6875 0.125 0  0.71875 0.125 0  0.75 0.125 0  0.78125 0.125 0  0.8125 0.125 0  0.84375 0.125 0  0.875 0.125 0  0.90625 0.125 0  0.9375 0.125 0  0.96875 0.125 0  1 0.125 0  0 0.15625 0  0.03125 0.15625 0  0.0625 0.15625 0  0.09375 0.15625 0  0.125 0.15625 0  0.15625 0.15625 0  0.1875 0.15625 0  0.21875 0.15625 0  0.25 0.15625 0  0.28125 0.15625 0  0.3125 0.15625 0  0.34375 0.15625 0  0.375 0.15625 0  0.40625 0.15625 0  0.4375 0.15625 0  0.46875 0.15625 0  0.5 0.15625 0  0.53125 0.15625 0  0.5625 0.15625 0  0.59375 0.15625 0  0.625 0.15625 0  0.65625 0.15625 0  0.6875 0.15625 0  0.71875 0.15625 0  0.75 0.15625 0  0.78125 0.15625 0  0.8125 0.15625 0  0.84375 0.15625 0  0.875 0.15625 0  0.90625 0.15625 0  0.9375 0.15625 0  0.96875 0.15625 0  1 0.15625 0  0 0.1875 0  0.03125 0.1875 0  0.0625 0.1875 0  0.09375 0.1875 0  0.125 0.1875 0  0.15625 0.1875 0  0.1875 0.1875 0  0.21875 0.1875 0  0.25 0.1875 0  0.28125 0.1875 0  0.3125 0.1875 0  0.34375 0.1875 0  0.375 0.1875 0  0.40625 0.1875 0  0.4375 0.1875 0  0.46875 0.1875 0  0.5 0.1875 0  0.53125 0.1875 0  0.5625 0.1875 0  0.59375 0.1875 0  0.625 0.1875 0  0.65625 0.1875 0  0.6875 0.1875 0  0.71875 0.1875 0  0.75 0.1875 0  0.78125 0.1875 0  0.8125 0.1875 0  0.84375 0.1875 0  0.875 0.1875 0  0.90625 0.1875 0  0.9375 0.1875 0  0.96875 0.1875 0  1 0.1875 0  0 0.21875 0  0.03125 0.21875 0  0.0625 0.21875 0  0.09375 0.21875 0  0.125 0.21875 0  0.15625 0.21875 0  0.1875 0.21875 0  0.21875 0.21875 0  0.25 0.21875 0  0.28125 0.21875 0  0.3125 0.21875 0  0.34375 0.21875 0  0.375 0.21875 0  0.40625 0.21875 0  0.4375 0.21875 0  0.46875 0.21875 0  0.5 0.21875 0  0.53125 0.21875 0  0.5625 0.21875 0  0.59375 0.21875 0  0.625 0.21875 0  0.65625 0.21875 0  0.6875 0.21875 0  0.71875 0.21875 0  0.75 0.21875 0  0.78125 0.21875 0  0.8125 0.21875 0  0.84375 0.21875 0  0.875 0.21875 0  0.90625 0.21875 0  0.9375 0.21875 0  0.96875 0.21875 0  1 0.21875 0  0 0.25 0  0.03125 0.25 0  0.0625 0.25 0  0.09375 0.25 0  0.125 0.25 0  0.15625 0.25 0  0.1875 0.25 0  0.21875 0.25 0  0.25 0.25 0  0.28125 0.25 0  0.3125 0.25 0  0.34375 0.25 0  0.375 0.25 0  0.40625 0.25 0  0.4375 0.25 0  0.46875 0.25 0  0.5 0.25 0  0.53125 0.25 0  0.5625 0.25 0  0.59375 0.25 0  0.625 0.25 0  0.65625 0.25 0  0.6875 0.25 0  0.71875 0.25 0  0.75 0.25 0  0.78125 0.25 0  0.8125 0.25 0  0.84375 0.25 0  0.875 0.25 0  0.90625 0.25 0  0.9375 0.25 0  0.96875 0.25 0  1 0.25 0  0 0.28125 0  0.03125 0.28125 0  0.0625 0.28125 0  0.09375 0.28125 0  0.125 0.28125 0  0.15625 0.28125 0  0.1875 0.28125 0  0.21875 0.28125 0  0.25 0.28125 0  0.28125 0.28125 0  0.3125 0.28125 0  0.34375 0.28125 0  0.375 0.28125 0  0.40625 0.28125 0  0.4375 0.28125 0  0.46875 0.28125 0  0.5 0.28125 0  0.53125 0.28125 0  0.5625 0.28125 0  0.59375 0.28125 0  0.625 0.28125 0  0.65625 0.28125 0  0.6875 0.28125 0  0.71875 0.28125 0  0.75 0.28125 0  0.78125 0.28125 0  0.8125 0.28125 0  0.84375 0.28125 0  0.875 0.28125 0  0.90625 0.28125 0  0.9375 0.28125 0  0.96875 0.28125 0  1 0.28125 0  0 0.3125 0  0.03125 0.3125 0  0.0625 0.3125 0  0.09375 0.3125 0  0.125 0.3125 0  0.15625 0.3125 0  0.1875 0.3125 0  0.21875 0.3125 0  0.25 0.3125 0  0.28125 0.3125 0  0.3125 0.3125 0  0.34375 0.3125 0  0.375 0.3125 0  0.40625 0.3125 0  0.4375 0.3125 0  0.46875 0.3125 0  0.5 0.3125 0  0.53125 0.3125 0  0.5625 0.3125 0  0.59375 0.3125 0  0.625 0.3125 0  0.65625 0.3125 0  0.6875 0.3125 0  0.71875 0.3125 0  0.75 0.3125 0  0.78125 0.3125 0  0.8125 0.3125 0  0.84375 0.3125 0  0.875 0.3125 0  0.90625 0.3125 0  0.9375 0.3125 0  0.96875 0.3125 0  1 0.3125 0  0 0.34375 0  0.03125 0.34375 0  0.0625 0.34375 0  0.09375 0.34375 0  0.125 0.34375 0  0.15625 0.34375 0  0.1875 0.34375 0  0.21875 0.34375 0  0.25 0.34375 0  0.28125 0.34375 0  0.3125 0.34375 0  0.34375 0.34375 0  0.375 0.34375 0  0.40625 0.34375 0  0.4375 0.34375 0  0.46875 0.34375 0  0.5 0.34375 0  0.53125 0.34375 0  0.5625 0.34375 0  0.59375 0.34375 0  0.625 0.34375 0  0.65625 0.34375 0  0.6875 0.34375 0  0.71875 0.34375 0  0.75 0.34375 0  0.78125 0.34375 0  0.8125 0.34375 0  0.84375 0.34375 0  0.875 0.34375 0  0.90625 0.34375 0  0.9375 0.34375 0  0.96875 0.34375 0  1 0.34375 0  0 0.375 0  0.03125 0.375 0  0.0625 0.375 0  0.09375 0.375 0  0.125 0.375 0  0.15625 0.375 0  0.1875 0.375 0  0.21875 0.375 0  0.25 0.375 0  0.28125 0.375 0  0.3125 0.375 0  0.34375 0.375 0  0.375 0.375 0  0.40625 0.375 0  0.4375 0.375 0  0.46875 0.375 0  0.5 0.375 0  0.53125 0.375 0  0.5625 0.375 0  0.59375 0.375 0  0.625 0.375 0  0.65625 0.375 0  0.6875 0.375 0  0.71875 0.375 0  0.75 0.375 0  0.78125 0.375 0  0.8125 0.375 0  0.84375 0.375 0  0.875 0.375 0  0.90625 0.375 0  0.9375 0.375 0  0.96875 0.375 0  1 0.375 0  0 0.40625 0  0.03125 0.40625 0  0.0625 0.40625 0  0.09375 0.40625 0  0.125 0.40625 0  0.15625 0.40625 0  0.1875 0.40625 0  0.21875 0.40625 0  0.25 0.40625 0  0.28125 0.40625 0  0.3125 0.40625 0  0.34375 0.40625 0  0.375 0.40625 0  0.40625 0.40625 0  0.4375 0.40625 0  0.46875 0.40625 0  0.5 0.40625 0  0.53125 0.40625 0  0.5625 0.40625 0  0.59375 0.40625 0  0.625 0.40625 0  0.65625 0.40625 0  0.6875 0.40625 0  0.71875 0.40625 0  0.75 0.40625 0  0.78125 0.40625 0  0.8125 0.40625 0  0.84375 0.40625 0  0.875 0.40625 0  0.90625 0.40625 0  0.9375 0.40625 0  0.96875 0.40625 0  1 0.40625 0  0 0.4375 0  0.03125 0.4375 0  0.0625 0.4375 0  0.09375 0.4375 0  0.125 0.4375 0  0.15625 0.4375 0  0.1875 0.4375 0  0.21875 0.4375 0  0.25 0.4375 0  0.28125 0.4375 0  0.3125 0.4375 0  0.34375 0.4375 0  0.375 0.4375 0  0.40625 0.4375 0  0.4375 0.4375 0  0.46875 0.4375 0  0.5 0.4375 0  0.53125 0.4375 0  0.5625 0.4375 0  0.59375 0.4375 0  0.625 0.4375 0  0.65625 0.4375 0  0.6875 0.4375 0  0.71875 0.4375 0  0.75 0.4375 0  0.78125 0.4375 0  0.8125 0.4375 0  0.84375 0.4375 0  0.875 0.4375 0  0.90625 0.4375 0  0.9375 0.4375 0  0.96875 0.4375 0  1 0.4375 0  0 0.46875 0  0.03125 0.46875 0  0.0625 0.46875 0  0.09375 0.46875 0  0.125 0.46875 0  0.15625 0.46875 0  0.1875 0.46875 0  0.21875 0.46875 0  0.25 0.46875 0  0.28125 0.46875 0  0.3125 0.46875 0  0.34375 0.46875 0  0.375 0.46875 0  0.40625 0.46875 0  0.4375 0.46875 0  0.46875 0.46875 0  0.5 0.46875 0  0.53125 0.46875 0  0.5625 0.46875 0  0.59375 0.46875 0  0.625 0.46875 0  0.65625 0.46875 0  0.6875 0.46875 0  0.71875 0.46875 0  0.75 0.46875 0  0.78125 0.46875 0  0.8125 0.46875 0  0.84375 0.46875 0  0.875 0.46875 0  0.90625 0.46875 0  0.9375 0.46875 0  0.96875 0.46875 0  1 0.46875 0  0 0.5 0  0.03125 0.5 0  0.0625 0.5 0  0.09375 0.5 0  0.125 0.5 0  0.15625 0.5 0  0.1875 0.5 0  0.21875 0.5 0  0.25 0.5 0  0.28125 0.5 0  0.3125 0.5 0  0.34375 0.5 0  0.375 0.5 0  0.40625 0.5 0  0.4375 0.5 0  0.46875 0.5 0  0.5 0.5 0  0.53125 0.5 0  0.5625 0.5 0  0.59375 0.5 0  0.625 0.5 0  0.65625 0.5 0  0.6875 0.5 0  0.71875 0.5 0  0.75 0.5 0  0.78125 0.5 0  0.8125 0.5 0  0.84375 0.5 0  0.875 0.5 0  0.90625 0.5 0  0.9375 0.5 0  0.96875 0.5 0  1 0.5 0  0 0.53125 0  0.03125 0.53125 0  0.0625 0.53125 0  0.09375 0.53125 0  0.125 0.53125 0  0.15625 0.53125 0  0.1875 0.53125 0  0.21875 0.53125 0  0.25 0.53125 0  0.28125 0.53125 0  0.3125 0.53125 0  0.34375 0.53125 0  0.375 0.53125 0  0.40625 0.53125 0  0.4375 0.53125 0  0.46875 0.53125 0  0.5 0.53125 0  0.53125 0.53125 0  0.5625 0.53125 0  0.59375 0.53125 0  0.625 0.53125 0  0.65625 0.53125 0  0.6875 0.53125 0  0.71875 0.53125 0  0.75 0.53125 0  0.78125 0.531
[...]
<CellData  Scalars="f_132648"> 
<DataArray  type="Float64"  Name="f_132648"  format="ascii">2.3177428394487742e-11   2.3010859857212049e-11   2.2130173507656757e-11   2.2698978440132339e-11   2.0704590770243639e-11   2.1380222494754221e-11   1.8952423469427298e-11   1.9712246900796717e-11   1.6940662994928252e-11   1.7763024999033921e-11   1.4746598380065844e-11   1.5607925483414683e-11   1.2454555130943039e-11   1.3329809795237292e-11   1.0152619592546250e-11   1.1016241602588695e-11   7.9292544115287115e-12   8.7561469567730545e-12   5.8699014900496072e-12   6.6363925115308896e-12   4.0536996616879487e-12   4.7384469545245355e-12   2.5504437919926606e-12   3.1352517175606790e-12   1.4179026675030218e-12   1.8884192587070672e-12   6.9959896020340823e-13   1.0458662134176712e-12   4.2313665411695257e-13   6.3997248700603774e-13   5.9914022958554675e-13   6.8633719029828363e-13   1.2208463752868866e-12   1.1831793328927304e-12   2.2643639181458232e-12   2.1114063658363047e-12   3.6895919838455102e-12   3.4353479747252601e-12   5.4417611079114331e-12   5.1041269479258041e-12   7.4535380859862351e-12   7.0536144615711509e-12   9.6476137016280312e-12   9.2088946762342575e-12   1.1939673949507702e-11   1.1487144000281433e-11   1.4241640728833558e-11   1.3800814512561242e-11   1.6465057922034546e-11   1.6060999506477069e-11   1.8524494231579026e-11   1.8180852427994215e-11   2.0340837663565974e-11   2.0078928796545521e-11   2.1844379029722529e-11   2.1682322746337126e-11   2.2977668967232148e-11   2.2929464701924384e-11   2.3698737182619621e-11   2.3772399864077493e-11   2.3983970580680204e-11   2.4177274203605730e-11   2.3402293114297736e-11   2.4132725227125186e-11   2.2443383439778163e-11   2.1503258886084748e-11   2.1287068843605788e-11   2.1075948065120789e-11   1.9777728496392206e-11   1.9694875402576463e-11   1.7978893101499911e-11   1.8022664352476270e-11   1.5959780211809455e-11   1.6122489440115346e-11   1.3797985723472958e-11   1.4066955847704664e-11   1.1576588336788876e-11   1.1934948366074961e-11   9.3809600166584297e-12   9.8083885583746657e-12   7.2954818216636302e-12   7.7690082327132359e-12   5.4003003965916953e-12   5.8951898443662917e-12   3.7682482817374819e-12   4.2589507768199260e-12   2.4620454326773765e-12   2.9231758644662371e-12   1.5318892476336249e-12   1.9392015156881687e-12   1.0135257118477662e-12   1.3448435400072367e-12   9.2687582421691542e-13   1.1629443589677817e-12   1.2752701277372436e-12   1.4004954729746478e-12   2.0453207842781502e-12   2.0483689642435633e-12   3.2074361273375099e-12   3.0816683994130063e-12   4.7169579357346760e-12   4.4606856782335467e-12   6.5158777498500055e-12   6.1324270818854751e-12   8.5350663227175613e-12   8.0326499001776678e-12   1.0696930636834196e-11   1.0088331403858974e-11   1.2918396630464630e-11   1.2220475333488899e-11   1.5114103595370170e-11   1.4347148128621901e-11   1.7199688824187495e-11   1.6386628292423843e-11   1.9095038889150712e-11   1.8260547696616030e-11   2.0727384981567471e-11   1.9896902595845165e-11   2.2034108267072196e-11   2.1232811291322363e-11   2.2965013083095875e-11   2.2216881594661811e-11   2.3483533610157924e-11   2.2811013003264077e-11   2.3563832283277309e-11   2.2990610937183911e-11   2.2777658667849858e-11   2.2755918764008218e-11   2.0674588182925364e-11   1.9656386395184230e-11   1.9450823583371733e-11   1.9126496229905506e-11   1.7931306822091265e-11   1.7729551887610414e-11   1.6180642094105774e-11   1.6103714045418500e-11   1.4265210306530102e-11   1.4309294521364020e-11   1.2258570117323180e-11   1.2414666556248417e-11   1.0237840557485680e-11   1.0492411504525413e-11   8.2806852409713454e-12   8.6163477631424379e-12   6.4623229112002423e-12   6.8585648458966322e-12   4.8526367071353245e-12   5.2866163033852320e-12   3.5134890366311232e-12   3.9609151748390488e-12   2.4963446994214087e-12   2.9324106916503933e-12   1.8402934839093366e-12   2.2406301918031717e-12   1.5705482219769624e-12   1.9121602742687452e-12   1.6974760461715881e-12   1.9596252823500974e-12   2.2162001065322847e-12   2.3812023132705043e-12   3.1067870774348137e-12   3.1606913876427803e-12   4.3350132694601695e-12   4.2681380915475887e-12   5.8536799275933422e-12   5.6609847756064158e-12   7.6044271994550493e-12   7.2857060815919560e-12   9.5199771178125375e-12   9.0798659552457155e-12   1.1526719497490309e-11   1.0974517100710471e-11   1.3547541542002269e-11   1.2896850661159773e-11   1.5504792641560884e-11   1.4772994238412359e-11   1.7323270328999613e-11   1.6530850483079491e-11   1.8933110171061805e-11   1.8102866345045617e-11   2.0272455066224490e-11   1.9428624033995735e-11   2.1289748047882666e-11   2.0457147079007436e-11   2.1945399092900857e-11   2.1148814197325221e-11   2.2212745578607434e-11   2.1476790010395313e-11   2.2077603925529139e-11   2.1427177969452708e-11   2.1146185731801215e-11   2.1011106983609380e-11   1.8599105403042548e-11   1.7536193218649644e-11   1.7350864203335178e-11   1.6930097158810433e-11   1.5870419575377934e-11   1.5562338840126592e-11   1.4222682474145095e-11   1.4033481989505291e-11   1.2469941210593731e-11   1.2399364034121081e-11   1.0679457893672079e-11   1.0722224821103122e-11   8.9200265329905598e-12   9.0662971202508716e-12   7.2592635118759531e-12   7.4951569327272418e-12   5.7609948062791696e-12   6.0691680860900187e-12   4.4828011950986804e-12   4.8431284690551766e-12   3.4738053689284017e-12   3.8641549132864733e-12   2.7727843219728711e-12   3.1698701836348372e-12   2.4066793353257134e-12   2.7869565843863764e-12   2.3895607770895077e-12   2.7301304463665167e-12   2.7220874972401146e-12   3.0015765808689824e-12   3.3914815960172329e-12   3.5908643473404241e-12   4.3720195443038529e-12   4.4753485326027910e-12   5.6260207919612184e-12   5.6210396253549783e-12   7.1052958860104837e-12   6.9839100382637885e-12   8.7529984618141161e-12   8.5115860764324202e-12   1.0505809955613738e-11   1.0145360625314606e-11   1.2296373086857463e-11   1.1822449191467029e-11   1.4055880531799299e-11   1.3478402546433802e-11   1.5716718953933854e-11   1.5049583128405380e-11   1.7215065400336832e-11   1.6475609719784984e-11   1.8493331665931490e-11   1.7701675736104051e-11   1.9502349216061356e-11   1.8680650525758144e-11   2.0203178553243524e-11   1.9374880157437376e-11   2.0568420673456520e-11   1.9757612576500367e-11   2.0583200195007361e-11   1.9813998205921377e-11   2.0244100904436759e-11   1.9540914793020563e-11   1.9183257683917746e-11   1.8958703245105997e-11   1.6301081751860255e-11   1.5223711403484725e-11   1.5068347466036683e-11   1.4570660285405688e-11   1.3673152870440320e-11   1.3275071774208820e-11   1.2178266293978583e-11   1.1889689616391845e-11   1.0640180397366912e-11   1.0464250947458329e-11   9.1179096443047129e-12   9.0529809830918005e-12   7.6699330111097816e-12   7.7099184680453698e-12   6.3518929385911994e-12   6.4866233585176969e-12   5.2144418423691038e-12   5.4300922749596338e-12   4.3012926684567393e-12   4.5809236905528562e-12   3.6475385077306498e-12   3.9717500631868147e-12   3.2783039071604737e-12   3.6259817947106547e-12   3.2077793474023781e-12   3.5569070387126475e-12   3.4386759334637138e-12   3.7671808647742089e-12   3.9621212400254886e-12   4.2487231503454597e-12   4.7580003072663567e-12   4.9830290589489365e-12   5.7957286789883281e-12   5.9418801522589582e-12   7.0354277745997492e-12   7.0884287961956316e-12   8.4294574245096770e-12   8.3786141788711988e-12   9.9242466683590301e-12   9.7628555134010555e-12   1.1462352437597229e-11   1.1187957341950585e-11   1.2984666939186133e-11   1.2599153692011781e-11   1.4432688717378401e-11   1.3942212474780937e-11   1.5750769597035697e-11   1.5165519149505079e-11   1.6888249863492358e-11   1.6222059394972102e-11   1.7801396643502324e-11   1.7071224308118795e-11   1.8455064858481599e-11   1.7680368402127828e-11   1.8824005923364287e-11   1.8026060143764994e-11   1.8893749056945674e-11   1.8094974033806601e-11   1.8661117951204385e-11   1.7884393080036965e-11   1.8131611194974922e-11   1.7401635768417714e-11   1.6969704933553187e-11   1.6675137395188609e-11   1.3868332701871999e-11   1.2807863702286038e-11   1.2690224241687753e-11   1.2138712977156092e-11   1.1422926054965658e-11   1.0955514752052410e-11   1.0124920071340287e-11   9.7545415927673329e-12   8.8452372861241866e-12   8.5781026441076382e-12   7.6329804387525590e-12   7.4708668023381785e-12   6.5347162330790659e-12   6.4752090674509568e-12   5.5926467007213998e-12   5.6293466674678567e-12   4.8429746355403588e-12   4.9657741248413390e-12   4.3145097816515360e-12   4.5099891962016224e-12   4.0275611904036068e-12   4.2795066093780147e-12   3.9931566497691896e-12   4.2831834635980579e-12   4.2126188513370595e-12   4.5208784942060158e-12   4.6775145334346946e-12   4.9834573894781075e-12   5.3699785509764735e-12   5.6531437565234396e-12   6.2634004142901473e-12   6.5042022120640530e-12   7.3234469086254724e-12   7.5039273404102581e-12   8.5093814887009195e-12   8.6139005084813552e-12   9.7756297349131173e-12   9.7914662328442522e-12   1.1073530692435546e-11   1.0991371352420693e-11   1.2353206751816843e-11   1.2167504001244069e-11   1.3565480128935824e-11   1.3274665530557255e-11   1.4663762124439502e-11   1.4270307253826634e-11   1.5605842222589277e-11   1.5116165228887927e-11   1.6355507674715894e-11   1.5779730213727536e-11   1.6883930307805756e-11   1.6235496313907131e-11   1.7170765240914501e-11   1.6465940433078140e-11   1.7204912327459528e-11   1.6462194801641163e-11   1.6984872046491163e-11   1.6224383222785475e-11   1.6518665247027764e-11   1.5761609622325874e-11   1.5820129515243327e-11   1.5091027572353121e-11   1.4591820293132871e-11   1.4247935783036615e-11   1.1394020998860653e-11   1.0381543199645268e-11   1.0307560719220259e-11   9.7276737996427788e-12   9.2058243518737318e-12   8.6927823967206180e-12   8.1411449370011045e-12   7.7100685159294105e-12   7.1536996256573556e-12   6.8133704803097046e-12   6.2813778206669771e-12   6.0366407869690470e-12   5.5576859408605929e-12   5.4095745343922600e-12   5.0104319309226524e-12   4.9562309760435145e-12   4.6606459268180885e-12   4.6940224955915418e-12   4.5217699612382414e-12   4.6330233837416470e-12   4.5991410309092013e-12   4.7755771856852959e-12   4.8897859606226361e-12   5.1162053994911703e-12   5.3825356491929263e-12   5.6418177713889093e-12   6.0584542703749682e-12   6.3322153022559533e-12   6.8915669393582008e-12   7.1608664599331713e-12   7.8498578858348836e-12   8.0959267410215110e-12   8.8965007727548314e-12   9.1014624020104920e-12   9.9912738742881742e-12   1.0138831333372538e-11   1.1092105717483546e-11   1.1168168008897112e-11   1.2156691770366713e-11   1.2149915438815505e-11   1.3144120016267012e-11   1.3046345246952733e-11   1.4016442890598361e-11   1.3823007446121532e-11   1.4740135091419345e-11   1.4450054188999981e-11   1.5287381137072170e-11   1.4903386626006095e-11   1.5637143086657808e-11   1.5165580829987209e-11   1.5775967179310285e-11   1.5226557292722347e-11   1.5698496961943219e-11   1.5083968357320732e-11   1.5407664369261992e-11   1.4743288348328651e-11   1.4914503357557229e-11   1.4217599448199338e-11   1.4237529036822400e-11   1.3527085802252405e-11   1.3398387856719654e-11   1.2697800691436142e-11   1.2141137675649521e-11   1.1770391853729504e-11   8.9731460796802252e-12   8.0380147233328230e-12   8.0118279746452488e-12   7.4301909816353279e-12   7.1069533274051101e-12   6.5738253324096757e-12   6.3030734853184082e-12   5.8348375528427112e-12   5.6304691175773564e-12   5.2378714781726676e-12   5.1149462309532249e-12   4.8054159332538133e-12   4.7763025243470564e-12   4.5539602498208587e-12   4.6275493370741074e-12   4.4931359048667830e-12   4.6744028070521545e-12   4.6252727252478497e-12   4.9150623528738213e-12   4.9452910620611072e-12   5.3402795556686866e-12   5.4408923931165188e-12   5.9337135673572322e-12   6.0930308874854214e-12   6.6725591008046580e-12   6.8766451297616250e-12   7.5284228234375095e-12   7.7616211986598378e-12   8.4684144792132372e-12   8.7139499272475689e-12   9.4564108150597695e-12   9.6970338439206213e-12   1.0454443742136199e-11   1.0673093568906455e-11   1.1424159382924735e-11   1.1604619622820574e-11   1.2328291926569434e-11   1.2455813856569785e-11   1.3132095641689957e-11   1.3193965108162337e-11   1.3804679999186396e-11   1.3790706219182577e-11   1.4320196580352039e-11   1.4223104104012298e-11   1.4658832149770106e-11   1.4474540986849625e-11   1.4807569749733140e-11   1.4535352959493426e-11   1.4760688614539169e-11   1.4403201365943737e-11   1.4519983529288411e-11   1.4083162803036998e-11   1.4094693433378993e-11   1.3587534274939460e-11   1.3501132594852217e-11   1.2935360552252261e-11   1.2761992312998548e-11   1.2151699413384144e-11   1.1905258837547840e-11   1.1266660923570229e-11   1.0959528945070129e-11   1.0313926598002811e-11   9.7118497740976465e-12   9.3377435001929348e-12   6.6987323319926474e-12   5.8673461475988355e-12   5.8912293856698800e-12   5.3345566969106286e-12   5.2069506992366041e-12   4.6800743583833709e-12   4.6813205608474753e-12   4.2009136651407380e-12   4.3340602464341471e-12   3.9121528315659930e-12   4.1784883841108881e-12   3.8245089345353580e-12   4.2205727720165619e-12   3.9412474034010025e-12   4.4586939754767369e-12   4.2578572720314312e-12   4.8837008460990655e-12   4.7621654224031960e-12   5.4792606295620543e-12   5.4347902451747609e-12   6.2224863088626526e-12   6.2498828764911074e-12   7.0848161232343186e-12   7.1761196886047168e-12   8.0331112057324713e-12   8.1779058620859431e-12   9.0309291026223468e-12   9.2167432564127811e-12   1.0039924229562509e-11   1.0252709876439254e-11   1.1021321451260576e-11   1.1245994049571074e-11   1.1937406158392573e-11   1.2158424353336249e-11   1.2752973579884045e-11   1.2954936500922716e-11   1.3436681631391027e-11   1.3604920815850316e-11   1.3962255307809605e-11   1.4083398514716947e-11   1.4309496333421514e-11   1.4371981595776477e-11   1.4465059274445302e-11   1.4459579449485929e-11   1.4422964309375093e-11   1.4342825045542181e-11   1.4184826995673434e-11   1.4026204336776659e-11   1.3759796226207392e-11   1.3521883935735245e-11   1.3164202491192841e-11   1.2849243712954295e-11   1.2420928176770033e-11   1.2034132230957695e-11   1.1558515975573881e-11   1.1107873320937821e-11   1.0610010484611399e-11   1.0106060812129588e-11   9.6114913424971272e-12   9.0671980825511764e-12   8.5973291449607503e-12   8.0310268440655851e-12   7.3973117307430357e-12   7.0434912158964159e-12   4.6581909621751536e-12   3.9529567692314548e-12   4.0272577369027969e-12   3.5213069366001470e-12   3.5788291164159961e-12   3.0843069429866366e-12   3.3382057123220800e-12   2.8710885584263605e-12   3.3142895739755430e-12   2.8871620644428004e-12   3.5079876688936786e-12   3.1316165118823646e-12   3.9118485809303722e-12   3.5949830576963706e-12   4.5103504050703937e-12   4.2594371542811983e-12   5.2804927708035854e-12   5.0994398888754510e-12   6.1926795585323559e-12   6.0827094343022051e-12   7.2118559698275254e-12   7.1714590972654121e-12   8.2988556218493522e-12   8.3238488032930097e-12   9.4119057006943466e-12   9.4955928391076097e-12   1.0508232277651079e-11   1.0641661703119916e-11   1.1545704086583589e-11   1.1718012564480704e-11   1.2484451593532838e-11   1.2683281804217837e-11   1.3288399140870043e-11   1.3500374590057068e-11   1.3926651288065947e-11   1.4137890399166279e-11   1.4374680073757015e-11   1.4571329708145509e-11   1.4615267574519957e-11   1.4784035480514151e-11   1.4639167543064517e-11   1.4767833273046808e-11   1.4445460710477392e-11   1.4523345366532824e-11   1.4041590119636616e-11   1.4059966856458830e-11   1.3443075157910951e-11   1.3395504634075061e-11   1.2672915258415337e-11   1.2555493145791702e-11   1.1760705900867134e-11   1.1572213233791116e-11   1.0741499466913507e-11   1.0483451729576235e-11   9.6544486988359157e-12   9.3310493654946519e-12   8.5412543185554664e-12   8.1592928162564607e-12   7.4443942976154944e-12   7.0132235968023539e-12   6.4025907561281487e-12   5.9368396000871986e-12   5.2864692865650587e-12   4.9758093225255591e-12   2.9299450693534305e-12   2.3684154653661654e-12   2.4915475637966808e-12   2.0601251913956415e-12   2.2851568214555934e-12   1.8478490850271051e-12   2.3253438126856322e-12   1.8964675347846036e-12   2.6103459807100409e-12   2.2022894714154447e-12   3.1292106028543718e-12   2.7533665485491293e-12   3.8619933655652786e-12   3.5284743690763495e-12   4.7805325884371434e-12   4.4978151554176634e-12   5.8495290605267351e-12   5.6241350038605027e-12   7.0279018388259881e-12   6.8641494290620663e-12   8.2703667427475172e-12   8.1702052410348031e-12   9.5291765476399063e-12   9.4921114337281069e-12   1.0755955879742541e-11   1.0779067893384368e-11   1.1903560258423751e-11   1.1981617593899609e-11   1.2927887832432422e-11   1.3053547198583806e-11   1.3789574184182615e-11   1.3953663012069353e-11   1.4455505072015466e-11   1.4647374028809494e-11   1.4900088978365296e-11   1.5108021241718568e-11   1.5106240561968305e-11   1.5317902127197627e-11   1.5066037223574634e-11   1.5268950937489814e-11   1.4781023558643531e-11   1.4963048658869292e-11   1.4262152005982644e-11   1.4411950727137494e-11   1.3529361984461675e-11   1.3636835282445481e-11   1.2610813699132398e-11   1.2667489329665521e-11   1.1541806026789506e-11   1.1541164087040485e-11   1.0363419855950552e-11   1.0301143515665127e-11   9.1209381088185921e-12   8.9950810428866041e-12   7.8620992783235860e-12   7.6731684670613688e-12   6.6352300698171975e-12   6.3862082733488582e-12   5.4872605841687968e-12   5.1836730963230142e-12   4.4596668246590440e-12   4.1118477870268955e-12   3.4604413755515309e-12   3.2141615000269772e-12   1.5804139016012179e-12   1.1746148360539071e-12   1.3431182125917985e-12   1.0071646010795270e-12   1.3756500319310931e-12   1.0182183141628991e-12   1.6816588220088316e-12   1.3145054922381017e-12   2.2492816537846777e-12   1.8838546751600067e-12   3.0567133720918092e-12   2.7042951459410059e-12   4.0729229655552106e-12   3.7442773496133055e-12   5.2588573966823193e-12   4.9638306389504602e-12   6.5689416823794772e-12   6.3160870749780647e-12   7.9528299963947213e-12   7.7490799072613140e-12   9.3573403017542287e-12   9.2077399716405413e-12   1.0728498064228437e-11   1.0636011788117836e-11   1.2013610452290060e-11   1.1979007687943533e-11   1.3163291291516120e-11   1.3185117099160262e-11   1.4133358947169589e-11   1.4207989907339918e-11   1.4886534198213648e-11   1.5008317663540341e-11   1.5393872853691522e-11   1.5555344185946747e-11   1.5635878057633314e-11   1.5828047502412055e-11   1.5603249538291181e-11   1.5815947712402665e-11   1.5297241010328560e-11   1.5519509722957768e-11   1.4729611998511808e-11   1.4950125382437061e-11   1.3922175937922754e-11   1.4129675699755016e-11   1.2905961921700549e-11   1.3089689975097996e-11   1.1720022308916615e-11   1.1870134159002058e-11   1.0409931992899279e-11   1.0517875007949237e-11   9.0260368963556474e-12   9.0848790662096492e-12   7.6215185636563993e-12   7.6262157162800649e-12   6.2503472417675103e-12   6.1979412094261609e-12   4.9651897850159209e-12   4.8549463329430183e-12   3.8153085104579368e-12   3.6488570811983061e-12   2.8432276132745953e-12   2.6261874185358100e-12   1.9894021321204030e-12   1.8262490323462339e-12   6.6146114156789668e-13   4.1743155251352244e-13   6.2610513755498031e-13   4.0289026693465790e-13   8.8526161574030145e-13   6.2729768546868296e-13   1.4318875240069374e-12   1.1475675414061229e-12   2.2449721201464009e-12   1.9440952780325066e-12   3.2932819521496637e-12   2.9862882088844117e-12   4.5365314027733038e-12   4.2340988297738140e-12   5.9269429764137618e-12   5.6395748704875403e-12   7.4110838749760164e-12   7.1487047301377500e-12   8.9319193926290871e-12   8.7034934239864284e-12   1.0431004688348214e-11   1.0244191330750873e-11   1.1850730767554984e-11   1.1711590330702151e-11   1.3136538355206817e-11   1.3049299132578793e-11   1.4239014575468418e-11   1.4205910355162492e-11   1.511579