<?xml version="1.0"?>
<VTKFile type="UnstructuredGrid"  version="0.1"  >
<UnstructuredGrid>
<Piece  NumberOfPoints="81" NumberOfCells="128">
<Points>
<DataArray  type="Float64"  NumberOfComponents="3"  format="ascii">0 0 0  0.125 0 0  0.25 0 0  0.375 0 0  0.5 0 0  0.625 0 0  0.75 0 0  0.875 0 0  1 0 0  0 0.125 0  0.125 0.125 0  0.25 0.125 0  0.375 0.125 0  0.5 0.125 0  0.625 0.125 0  0.75 0.125 0  0.875 0.125 0  1 0.125 0  0 0.25 0  0.125 0.25 0  0.25 0.25 0  0.375 0.25 0  0.5 0.25 0  0.625 0.25 0  0.75 0.25 0  0.875 0.25 0  1 0.25 0  0 0.375 0  0.125 0.375 0  0.25 0.375 0  0.375 0.375 0  0.5 0.375 0  0.625 0.375 0  0.75 0.375 0  0.875 0.375 0  1 0.375 0  0 0.5 0  0.125 0.5 0  0.25 0.5 0  0.375 0.5 0  0.5 0.5 0  0.625 0.5 0  0.75 0.5 0  0.875 0.5 0  1 0.5 0  0 0.625 0  0.125 0.625 0  0.25 0.625 0  0.375 0.625 0  0.5 0.625 0  0.625 0.625 0  0.75 0.625 0  0.875 0.625 0  1 0.625 0  0 0.75 0  0.125 0.75 0  0.25 0.75 0  0.375 0.75 0  0.5 0.75 0  0.625 0.75 0  0.75 0.75 0  0.875 0.75 0  1 0.75 0  0 0.875 0  0.125 0.875 0  0.25 0.875 0  0.375 0.875 0  0.5 0.875 0  0.625 0.875 0  0.75 0.875 0  0.875 0.875 0  1 0.875 0  0 1 0  0.125 1 0  0.25 1 0  0.375 1 0  0.5 1 0  0.625 1 0  0.75 1 0  0.875 1 0  1 1 0  </DataArray>
</Points>
<Cells>
<DataArray  type="UInt32"  Name="connectivity"  format="ascii">0 1 10  0 9 10  1 2 11  1 10 11  2 3 12  2 11 12  3 4 13  3 12 13  4 5 14  4 13 14  5 6 15  5 14 15  6 7 16  6 15 16  7 8 17  7 16 17  9 10 19  9 18 19  10 11 20  10 19 20  11 12 21  11 20 21  12 13 22  12 21 22  13 14 23  13 22 23  14 15 24  14 23 24  15 16 25  15 24 25  16 17 26  16 25 26  18 19 28  18 27 28  19 20 29  19 28 29  20 21 30  20 29 30  21 22 31  21 30 31  22 23 32  22 31 32  23 24 33  23 32 33  24 25 34  24 33 34  25 26 35  25 34 35  27 28 37  27 36 37  28 29 38  28 37 38  29 30 39  29 38 39  30 31 40  30 39 40  31 32 41  31 40 41  32 33 42  32 41 42  33 34 43  33 42 43  34 35 44  34 43 44  36 37 46  36 45 46  37 38 47  37 46 47  38 39 48  38 47 48  39 40 49  39 48 49  40 41 50  40 49 50  41 42 51  41 50 51  42 43 52  42 51 52  43 44 53  43 52 53  45 46 55  45 54 55  46 47 56  46 55 56  47 48 57  47 56 57  48 49 58  48 57 58  49 50 59  49 58 59  50 51 60  50 59 60  51 52 61  51 60 61  52 53 62  52 61 62  54 55 64  54 63 64  55 56 65  55 64 65  56 57 66  56 65 66  57 58 67  57 66 67  58 59 68  58 67 68  59 60 69  59 68 69  60 61 70  60 69 70  61 62 71  61 70 71  63 64 73  63 72 73  64 65 74  64 73 74  65 66 75  65 74 75  66 67 76  66 75 76  67 68 77  67 76 77  68 69 78  68 77 78  69 70 79  69 78 79  70 71 80  70 79 80  </DataArray>
<DataArray  type="UInt32"  Name="offsets"  format="ascii">3 6 9 12 15 18 21 24 27 30 33 36 39 42 45 48 51 54 57 60 63 66 69 72 75 78 81 84 87 90 93 96 99 102 105 108 111 114 117 120 123 126 129 132 135 138 141 144 147 150 153 156 159 162 165 168 171 174 177 180 183 186 189 192 195 198 201 204 207 210 213 216 219 222 225 228 231 234 237 240 243 246 249 252 255 258 261 264 267 270 273 276 279 282 285 288 291 294 297 300 303 306 309 312 315 318 321 324 327 330 333 336 339 342 345 348 351 354 357 360 363 366 369 372 375 378 381 384 </DataArray>
<DataArray  type="UInt8"  Name="types"  format="ascii">5 5 5 5 5 5 5 5 5 5 5 5 5 5 5 5 5 5 5 5 5 5 5 5 5 5 5 5 5 5 5 5 5 5 5 5 5 5 5 5 5 5 5 5 5 5 5 5 5 5 5 5 5 5 5 5 5 5 5 5 5 5 5 5 5 5 5 5 5 5 5 5 5 5 5 5 5 5 5 5 5 5 5 5 5 5 5 5 5 5 5 5 5 5 5 5 5 5 5 5 5 5 5 5 5 5 5 5 5 5 5 5 5 5 5 5 5 5 5 5 5 5 5 5 5 5 5 5 </DataArray>
</Cells>
<CellData  Scalars="f_34898"> 
<DataArray  type="Float64"  Name="f_34898"  format="ascii">2.5060614749895880e-03   2.4501395415620626e-03   1.4803493576921677e-03   1.7183040003325930e-03   4.8534223880030336e-04   7.7988054712553264e-04   1.0710841150660366e-04   2.8151322690048261e-04   5.6856600712298054e-04   5.1521693951625059e-04   1.6002811856088083e-03   1.3448093289629053e-03   2.5935723309586860e-03   2.2838269935533907e-03   2.8977997650399701e-03   2.7852694642408931e-03   1.6203830617255916e-03   1.2846629887667278e-03   9.4956338882960995e-04   8.8156651624737544e-04   5.4974978493002797e-04   6.5929584545603576e-04   6.6103225622497882e-04   8.1969377886746458e-04   1.2182958384591483e-03   1.2681437059503685e-03   1.8940505978675673e-03   1.7422563063232094e-03   2.2865120669689877e-03   1.9640781557775707e-03   2.1419281539730869e-03   1.8070635165604435e-03   5.9169215896853029e-04   2.9823438681165110e-04   5.8665291636062595e-04   3.9909942538632673e-04   9.3940100069267441e-04   8.9179651861763824e-04   1.4501804230568750e-03   1.5261193739452607e-03   1.8194832007883614e-03   1.9302276697295122e-03   1.8302358616222177e-03   1.8674964294518967e-03   1.4729663368284313e-03   1.3747281940475835e-03   9.3502932309146340e-04   7.4012050247612953e-04   1.4600980243114104e-04   7.1642968713988626e-05   6.9201114974083103e-04   5.6053211693258176e-04   1.4704657450487903e-03   1.3493150317272489e-03   2.0297297478560667e-03   1.9926410373224067e-03   2.0419521438276769e-03   2.1146256709306532e-03   1.4998111982608717e-03   1.6436064385969673e-03   7.2039987626373490e-04   8.5542463808268437e-04   1.4255398022165381e-04   2.0685327491135654e-04   5.4889056402096113e-04   7.3869574215775044e-04   1.2051664701546191e-03   1.2710533276661311e-03   1.8317067736615623e-03   1.7633628878674691e-03   2.0606185493085324e-03   1.9457385829827511e-03   1.7576649233105859e-03   1.7132369896023414e-03   1.1005427133635240e-03   1.2019853442918756e-03   4.7641283627928454e-04   7.1126930858521288e-04   2.3529324329384067e-04   5.2053740261566634e-04   1.5655065633148088e-03   1.9091021639843792e-03   1.8259880402906315e-03   2.1115194058781666e-03   1.8116520886958469e-03   1.8902754405552122e-03   1.5246814034077143e-03   1.4126964865900477e-03   1.1332910421248303e-03   9.6122800440821582e-04   8.6729862875421630e-04   8.0175402287991043e-04   8.8556456255419694e-04   1.0284587401111803e-03   1.1600638715716014e-03   1.4997255088948021e-03   2.5989170896650155e-03   2.8877811496126403e-03   2.1903960550941019e-03   2.5806540971867924e-03   1.4222319141135981e-03   1.6535482608416531e-03   7.3594295681522054e-04   7.0463543508805511e-04   5.3447296590264663e-04   3.0032720454461315e-04   9.3731566654727493e-04   6.8082083606737999e-04   1.7107334363574620e-03   1.6259732913130767e-03   2.3742468513783051e-03   2.5799778511666886e-03   3.0460023895900450e-03   2.9715969139872673e-03   2.0908090220698753e-03   2.4174685600302135e-03   8.9336944480863641e-04   1.1859759468792583e-03   1.5319030576263072e-04   2.2217671904078314e-04   3.0546804656620574e-04   1.0200800292277208e-04   1.2623653317236213e-03   8.9752802385976516e-04   2.4671901619497780e-03   2.1424159201206918e-03   3.1572864264840989e-03   3.0982733501836749e-03   </DataArray> 
</CellData> 
</Piece>
</UnstructuredGrid>
</VTKFile>