<?xml version="1.0"?>
<VTKFile type="UnstructuredGrid"  version="0.1"  >
<UnstructuredGrid>
<Piece  NumberOfPoints="25" NumberOfCells="32">
<Points>
<DataArray  type="Float64"  NumberOfComponents="3"  format="ascii">0 0 0  0.25 0 0  0.5 0 0  0.75 0 0  1 0 0  0 0.25 0  0.25 0.25 0  0.5 0.25 0  0.75 0.25 0  1 0.25 0  0 0.5 0  0.25 0.5 0  0.5 0.5 0  0.75 0.5 0  1 0.5 0  0 0.75 0  0.25 0.75 0  0.5 0.75 0  0.75 0.75 0  1 0.75 0  0 1 0  0.25 1 0  0.5 1 0  0.75 1 0  1 1 0  </DataArray>
</Points>
<Cells>
<DataArray  type="UInt32"  Name="connectivity"  format="ascii">0 1 6  0 5 6  1 2 7  1 6 7  2 3 8  2 7 8  3 4 9  3 8 9  5 6 11  5 10 11  6 7 12  6 11 12  7 8 13  7 12 13  8 9 14  8 13 14  10 11 16  10 15 16  11 12 17  11 16 17  12 13 18  12 17 18  13 14 19  13 18 19  15 16 21  15 20 21  16 17 22  16 21 22  17 18 23  17 22 23  18 19 24  18 23 24  </DataArray>
<DataArray  type="UInt32"  Name="offsets"  format="ascii">3 6 9 12 15 18 21 24 27 30 33 36 39 42 45 48 51 54 57 60 63 66 69 72 75 78 81 84 87 90 93 96 </DataArray>
<DataArray  type="UInt8"  Name="types"  format="ascii">5 5 5 5 5 5 5 5 5 5 5 5 5 5 5 5 5 5 5 5 5 5 5 5 5 5 5 5 5 5 5 5 </DataArray>
</Cells>
<CellData  Scalars="f_42092"> 
<DataArray  type="Float64"  Name="f_42092"  format="ascii">1.5760203294597208e-04   9.0168201516140751e-05   4.3289187469726996e-05   2.0805854092801375e-05   3.5839621932530466e-05   3.4051210768550809e-05   1.5002439600421196e-04   9.2372981879666944e-05   1.7353424766930134e-04   1.3336590519870043e-07   1.8481530877105878e-04   8.3475980258903966e-05   1.0434269628025505e-04   1.7169964268539363e-04   8.2273476927795057e-05   8.7931673327303929e-05   8.7870583027262113e-05   8.1029193290929635e-05   1.7179982175397946e-04   1.0428419153814361e-04   8.3819414764913947e-05   1.8478282896558295e-04   9.1117326531758654e-08   1.7302830220535900e-04   9.1571052447466002e-05   1.5002439600421245e-04   3.4630710043726444e-05   3.6281976137195387e-05   2.0918626708015678e-05   4.3823852608305006e-05   8.9321438505821939e-05   1.5785008139488084e-04   </DataArray> 
</CellData> 
</Piece>
</UnstructuredGrid>
</VTKFile>