<?xml version="1.0"?>
<VTKFile type="UnstructuredGrid"  version="0.1"  >
<UnstructuredGrid>
<Piece  NumberOfPoints="1089" NumberOfCells="2048">
<Points>
<DataArray  type="Float64"  NumberOfComponents="3"  format="ascii">0 0 0  0.03125 0 0  0.0625 0 0  0.09375 0 0  0.125 0 0  0.15625 0 0  0.1875 0 0  0.21875 0 0  0.25 0 0  0.28125 0 0  0.3125 0 0  0.34375 0 0  0.375 0 0  0.40625 0 0  0.4375 0 0  0.46875 0 0  0.5 0 0  0.53125 0 0  0.5625 0 0  0.59375 0 0  0.625 0 0  0.65625 0 0  0.6875 0 0  0.71875 0 0  0.75 0 0  0.78125 0 0  0.8125 0 0  0.84375 0 0  0.875 0 0  0.90625 0 0  0.9375 0 0  0.96875 0 0  1 0 0  0 0.03125 0  0.03125 0.03125 0  0.0625 0.03125 0  0.09375 0.03125 0  0.125 0.03125 0  0.15625 0.03125 0  0.1875 0.03125 0  0.21875 0.03125 0  0.25 0.03125 0  0.28125 0.03125 0  0.3125 0.03125 0  0.34375 0.03125 0  0.375 0.03125 0  0.40625 0.03125 0  0.4375 0.03125 0  0.46875 0.03125 0  0.5 0.03125 0  0.53125 0.03125 0  0.5625 0.03125 0  0.59375 0.03125 0  0.625 0.03125 0  0.65625 0.03125 0  0.6875 0.03125 0  0.71875 0.03125 0  0.75 0.03125 0  0.78125 0.03125 0  0.8125 0.03125 0  0.84375 0.03125 0  0.875 0.03125 0  0.90625 0.03125 0  0.9375 0.03125 0  0.96875 0.03125 0  1 0.03125 0  0 0.0625 0  0.03125 0.0625 0  0.0625 0.0625 0  0.09375 0.0625 0  0.125 0.0625 0  0.15625 0.0625 0  0.1875 0.0625 0  0.21875 0.0625 0  0.25 0.0625 0  0.28125 0.0625 0  0.3125 0.0625 0  0.34375 0.0625 0  0.375 0.0625 0  0.40625 0.0625 0  0.4375 0.0625 0  0.46875 0.0625 0  0.5 0.0625 0  0.53125 0.0625 0  0.5625 0.0625 0  0.59375 0.0625 0  0.625 0.0625 0  0.65625 0.0625 0  0.6875 0.0625 0  0.71875 0.0625 0  0.75 0.0625 0  0.78125 0.0625 0  0.8125 0.0625 0  0.84375 0.0625 0  0.875 0.0625 0  0.90625 0.0625 0  0.9375 0.0625 0  0.96875 0.0625 0  1 0.0625 0  0 0.09375 0  0.03125 0.09375 0  0.0625 0.09375 0  0.09375 0.09375 0  0.125 0.09375 0  0.15625 0.09375 0  0.1875 0.09375 0  0.21875 0.09375 0  0.25 0.09375 0  0.28125 0.09375 0  0.3125 0.09375 0  0.34375 0.09375 0  0.375 0.09375 0  0.40625 0.09375 0  0.4375 0.09375 0  0.46875 0.09375 0  0.5 0.09375 0  0.53125 0.09375 0  0.5625 0.09375 0  0.59375 0.09375 0  0.625 0.09375 0  0.65625 0.09375 0  0.6875 0.09375 0  0.71875 0.09375 0  0.75 0.09375 0  0.78125 0.09375 0  0.8125 0.09375 0  0.84375 0.09375 0  0.875 0.09375 0  0.90625 0.09375 0  0.9375 0.09375 0  0.96875 0.09375 0  1 0.09375 0  0 0.125 0  0.03125 0.125 0  0.0625 0.125 0  0.09375 0.125 0  0.125 0.125 0  0.15625 0.125 0  0.1875 0.125 0  0.21875 0.125 0  0.25 0.125 0  0.28125 0.125 0  0.3125 0.125 0  0.34375 0.125 0  0.375 0.125 0  0.40625 0.125 0  0.4375 0.125 0  0.46875 0.125 0  0.5 0.125 0  0.53125 0.125 0  0.5625 0.125 0  0.59375 0.125 0  0.625 0.125 0  0.65625 0.125 0  0.6875 0.125 0  0.71875 0.125 0  0.75 0.125 0  0.78125 0.125 0  0.8125 0.125 0  0.84375 0.125 0  0.875 0.125 0  0.90625 0.125 0  0.9375 0.125 0  0.96875 0.125 0  1 0.125 0  0 0.15625 0  0.03125 0.15625 0  0.0625 0.15625 0  0.09375 0.15625 0  0.125 0.15625 0  0.15625 0.15625 0  0.1875 0.15625 0  0.21875 0.15625 0  0.25 0.15625 0  0.28125 0.15625 0  0.3125 0.15625 0  0.34375 0.15625 0  0.375 0.15625 0  0.40625 0.15625 0  0.4375 0.15625 0  0.46875 0.15625 0  0.5 0.15625 0  0.53125 0.15625 0  0.5625 0.15625 0  0.59375 0.15625 0  0.625 0.15625 0  0.65625 0.15625 0  0.6875 0.15625 0  0.71875 0.15625 0  0.75 0.15625 0  0.78125 0.15625 0  0.8125 0.15625 0  0.84375 0.15625 0  0.875 0.15625 0  0.90625 0.15625 0  0.9375 0.15625 0  0.96875 0.15625 0  1 0.15625 0  0 0.1875 0  0.03125 0.1875 0  0.0625 0.1875 0  0.09375 0.1875 0  0.125 0.1875 0  0.15625 0.1875 0  0.1875 0.1875 0  0.21875 0.1875 0  0.25 0.1875 0  0.28125 0.1875 0  0.3125 0.1875 0  0.34375 0.1875 0  0.375 0.1875 0  0.40625 0.1875 0  0.4375 0.1875 0  0.46875 0.1875 0  0.5 0.1875 0  0.53125 0.1875 0  0.5625 0.1875 0  0.59375 0.1875 0  0.625 0.1875 0  0.65625 0.1875 0  0.6875 0.1875 0  0.71875 0.1875 0  0.75 0.1875 0  0.78125 0.1875 0  0.8125 0.1875 0  0.84375 0.1875 0  0.875 0.1875 0  0.90625 0.1875 0  0.9375 0.1875 0  0.96875 0.1875 0  1 0.1875 0  0 0.21875 0  0.03125 0.21875 0  0.0625 0.21875 0  0.09375 0.21875 0  0.125 0.21875 0  0.15625 0.21875 0  0.1875 0.21875 0  0.21875 0.21875 0  0.25 0.21875 0  0.28125 0.21875 0  0.3125 0.21875 0  0.34375 0.21875 0  0.375 0.21875 0  0.40625 0.21875 0  0.4375 0.21875 0  0.46875 0.21875 0  0.5 0.21875 0  0.53125 0.21875 0  0.5625 0.21875 0  0.59375 0.21875 0  0.625 0.21875 0  0.65625 0.21875 0  0.6875 0.21875 0  0.71875 0.21875 0  0.75 0.21875 0  0.78125 0.21875 0  0.8125 0.21875 0  0.84375 0.21875 0  0.875 0.21875 0  0.90625 0.21875 0  0.9375 0.21875 0  0.96875 0.21875 0  1 0.21875 0  0 0.25 0  0.03125 0.25 0  0.0625 0.25 0  0.09375 0.25 0  0.125 0.25 0  0.15625 0.25 0  0.1875 0.25 0  0.21875 0.25 0  0.25 0.25 0  0.28125 0.25 0  0.3125 0.25 0  0.34375 0.25 0  0.375 0.25 0  0.40625 0.25 0  0.4375 0.25 0  0.46875 0.25 0  0.5 0.25 0  0.53125 0.25 0  0.5625 0.25 0  0.59375 0.25 0  0.625 0.25 0  0.65625 0.25 0  0.6875 0.25 0  0.71875 0.25 0  0.75 0.25 0  0.78125 0.25 0  0.8125 0.25 0  0.84375 0.25 0  0.875 0.25 0  0.90625 0.25 0  0.9375 0.25 0  0.96875 0.25 0  1 0.25 0  0 0.28125 0  0.03125 0.28125 0  0.0625 0.28125 0  0.09375 0.28125 0  0.125 0.28125 0  0.15625 0.28125 0  0.1875 0.28125 0  0.21875 0.28125 0  0.25 0.28125 0  0.28125 0.28125 0  0.3125 0.28125 0  0.34375 0.28125 0  0.375 0.28125 0  0.40625 0.28125 0  0.4375 0.28125 0  0.46875 0.28125 0  0.5 0.28125 0  0.53125 0.28125 0  0.5625 0.28125 0  0.59375 0.28125 0  0.625 0.28125 0  0.65625 0.28125 0  0.6875 0.28125 0  0.71875 0.28125 0  0.75 0.28125 0  0.78125 0.28125 0  0.8125 0.28125 0  0.84375 0.28125 0  0.875 0.28125 0  0.90625 0.28125 0  0.9375 0.28125 0  0.96875 0.28125 0  1 0.28125 0  0 0.3125 0  0.03125 0.3125 0  0.0625 0.3125 0  0.09375 0.3125 0  0.125 0.3125 0  0.15625 0.3125 0  0.1875 0.3125 0  0.21875 0.3125 0  0.25 0.3125 0  0.28125 0.3125 0  0.3125 0.3125 0  0.34375 0.3125 0  0.375 0.3125 0  0.40625 0.3125 0  0.4375 0.3125 0  0.46875 0.3125 0  0.5 0.3125 0  0.53125 0.3125 0  0.5625 0.3125 0  0.59375 0.3125 0  0.625 0.3125 0  0.65625 0.3125 0  0.6875 0.3125 0  0.71875 0.3125 0  0.75 0.3125 0  0.78125 0.3125 0  0.8125 0.3125 0  0.84375 0.3125 0  0.875 0.3125 0  0.90625 0.3125 0  0.9375 0.3125 0  0.96875 0.3125 0  1 0.3125 0  0 0.34375 0  0.03125 0.34375 0  0.0625 0.34375 0  0.09375 0.34375 0  0.125 0.34375 0  0.15625 0.34375 0  0.1875 0.34375 0  0.21875 0.34375 0  0.25 0.34375 0  0.28125 0.34375 0  0.3125 0.34375 0  0.34375 0.34375 0  0.375 0.34375 0  0.40625 0.34375 0  0.4375 0.34375 0  0.46875 0.34375 0  0.5 0.34375 0  0.53125 0.34375 0  0.5625 0.34375 0  0.59375 0.34375 0  0.625 0.34375 0  0.65625 0.34375 0  0.6875 0.34375 0  0.71875 0.34375 0  0.75 0.34375 0  0.78125 0.34375 0  0.8125 0.34375 0  0.84375 0.34375 0  0.875 0.34375 0  0.90625 0.34375 0  0.9375 0.34375 0  0.96875 0.34375 0  1 0.34375 0  0 0.375 0  0.03125 0.375 0  0.0625 0.375 0  0.09375 0.375 0  0.125 0.375 0  0.15625 0.375 0  0.1875 0.375 0  0.21875 0.375 0  0.25 0.375 0  0.28125 0.375 0  0.3125 0.375 0  0.34375 0.375 0  0.375 0.375 0  0.40625 0.375 0  0.4375 0.375 0  0.46875 0.375 0  0.5 0.375 0  0.53125 0.375 0  0.5625 0.375 0  0.59375 0.375 0  0.625 0.375 0  0.65625 0.375 0  0.6875 0.375 0  0.71875 0.375 0  0.75 0.375 0  0.78125 0.375 0  0.8125 0.375 0  0.84375 0.375 0  0.875 0.375 0  0.90625 0.375 0  0.9375 0.375 0  0.96875 0.375 0  1 0.375 0  0 0.40625 0  0.03125 0.40625 0  0.0625 0.40625 0  0.09375 0.40625 0  0.125 0.40625 0  0.15625 0.40625 0  0.1875 0.40625 0  0.21875 0.40625 0  0.25 0.40625 0  0.28125 0.40625 0  0.3125 0.40625 0  0.34375 0.40625 0  0.375 0.40625 0  0.40625 0.40625 0  0.4375 0.40625 0  0.46875 0.40625 0  0.5 0.40625 0  0.53125 0.40625 0  0.5625 0.40625 0  0.59375 0.40625 0  0.625 0.40625 0  0.65625 0.40625 0  0.6875 0.40625 0  0.71875 0.40625 0  0.75 0.40625 0  0.78125 0.40625 0  0.8125 0.40625 0  0.84375 0.40625 0  0.875 0.40625 0  0.90625 0.40625 0  0.9375 0.40625 0  0.96875 0.40625 0  1 0.40625 0  0 0.4375 0  0.03125 0.4375 0  0.0625 0.4375 0  0.09375 0.4375 0  0.125 0.4375 0  0.15625 0.4375 0  0.1875 0.4375 0  0.21875 0.4375 0  0.25 0.4375 0  0.28125 0.4375 0  0.3125 0.4375 0  0.34375 0.4375 0  0.375 0.4375 0  0.40625 0.4375 0  0.4375 0.4375 0  0.46875 0.4375 0  0.5 0.4375 0  0.53125 0.4375 0  0.5625 0.4375 0  0.59375 0.4375 0  0.625 0.4375 0  0.65625 0.4375 0  0.6875 0.4375 0  0.71875 0.4375 0  0.75 0.4375 0  0.78125 0.4375 0  0.8125 0.4375 0  0.84375 0.4375 0  0.875 0.4375 0  0.90625 0.4375 0  0.9375 0.4375 0  0.96875 0.4375 0  1 0.4375 0  0 0.46875 0  0.03125 0.46875 0  0.0625 0.46875 0  0.09375 0.46875 0  0.125 0.46875 0  0.15625 0.46875 0  0.1875 0.46875 0  0.21875 0.46875 0  0.25 0.46875 0  0.28125 0.46875 0  0.3125 0.46875 0  0.34375 0.46875 0  0.375 0.46875 0  0.40625 0.46875 0  0.4375 0.46875 0  0.46875 0.46875 0  0.5 0.46875 0  0.53125 0.46875 0  0.5625 0.46875 0  0.59375 0.46875 0  0.625 0.46875 0  0.65625 0.46875 0  0.6875 0.46875 0  0.71875 0.46875 0  0.75 0.46875 0  0.78125 0.46875 0  0.8125 0.46875 0  0.84375 0.46875 0  0.875 0.46875 0  0.90625 0.46875 0  0.9375 0.46875 0  0.96875 0.46875 0  1 0.46875 0  0 0.5 0  0.03125 0.5 0  0.0625 0.5 0  0.09375 0.5 0  0.125 0.5 0  0.15625 0.5 0  0.1875 0.5 0  0.21875 0.5 0  0.25 0.5 0  0.28125 0.5 0  0.3125 0.5 0  0.34375 0.5 0  0.375 0.5 0  0.40625 0.5 0  0.4375 0.5 0  0.46875 0.5 0  0.5 0.5 0  0.53125 0.5 0  0.5625 0.5 0  0.59375 0.5 0  0.625 0.5 0  0.65625 0.5 0  0.6875 0.5 0  0.71875 0.5 0  0.75 0.5 0  0.78125 0.5 0  0.8125 0.5 0  0.84375 0.5 0  0.875 0.5 0  0.90625 0.5 0  0.9375 0.5 0  0.96875 0.5 0  1 0.5 0  0 0.53125 0  0.03125 0.53125 0  0.0625 0.53125 0  0.09375 0.53125 0  0.125 0.53125 0  0.15625 0.53125 0  0.1875 0.53125 0  0.21875 0.53125 0  0.25 0.53125 0  0.28125 0.53125 0  0.3125 0.53125 0  0.34375 0.53125 0  0.375 0.53125 0  0.40625 0.53125 0  0.4375 0.53125 0  0.46875 0.53125 0  0.5 0.53125 0  0.53125 0.53125 0  0.5625 0.53125 0  0.59375 0.53125 0  0.625 0.53125 0  0.65625 0.53125 0  0.6875 0.53125 0  0.71875 0.53125 0  0.75 0.53125 0  0.78125 0.531
[...]
<CellData  Scalars="f_35744"> 
<DataArray  type="Float64"  Name="f_35744"  format="ascii">7.4631051476633578e-07   7.4362249540466007e-07   7.2441603531222634e-07   7.5219681705986434e-07   6.8226294893069658e-07   7.0774843204500365e-07   6.2765852678320462e-07   6.5424146292849610e-07   5.6359968887810045e-07   5.9175167967248597e-07   4.9284180809495378e-07   5.2208374947068315e-07   4.1822720664580490e-07   4.4780924507979633e-07   3.4268470318008943e-07   3.7178508175433998e-07   2.6915236108687317e-07   2.9694899311573897e-07   2.0047778550331028e-07   2.2619136533673344e-07   1.3931449180709662e-07   1.6224284650937388e-07   8.8022863150179378e-08   1.0756996139389341e-07   4.8581100671141072e-08   6.4280930434824525e-08   2.2510229856398943e-08   3.4045114095055230e-08   1.0816330242932029e-08   1.8029197881898175e-08   1.3952345315238926e-08   1.6852600982694853e-08   3.1801009064181441e-08   3.0563838770761035e-08   6.3679580214345483e-08   5.8638751045585986e-08   1.0836621838944847e-07   1.0000065612184724e-07   1.6414699331744963e-07   1.5306163576516972e-07   2.2888171712725101e-07   2.1578332584148841e-07   3.0008606003603774e-07   2.8575480680896897e-07   3.7502677739752797e-07   3.6028447054904989e-07   4.5082635670716053e-07   4.3650207610748333e-07   5.2457294316242442e-07   5.1146652936579469e-07   5.9343063429370006e-07   5.8227401078494498e-07   6.5474171176358724e-07   6.4615928170161724e-07   7.0609172752031239e-07   7.0057843135642809e-07   7.4518945125735681e-07   7.4324837717313754e-07   7.6874850670261545e-07   7.7207924582251026e-07   7.6462176091767264e-07   7.8479766034637503e-07   6.0671422139293199e-07   7.8000006252639462e-07   7.4344888545371302e-07   7.1081781315180542e-07   7.0727262386906225e-07   7.0331279826889299e-07   6.5807779327181469e-07   6.6005904910944400e-07   6.0024691277108820e-07   6.0530492334036295e-07   5.3484173482720743e-07   5.4283283010763120e-07   4.6421418391988321e-07   4.7512003782836943e-07   3.9105691539813703e-07   4.0453342946095817e-07   3.1818439728271659e-07   3.3365657508187696e-07   2.4840446711207287e-07   2.6515837696931768e-07   1.8440606089737555e-07   2.0164935814836135e-07   1.2865495443248449e-07   1.4556231619674839e-07   8.3298952940949030e-08   9.9050914270321946e-08   5.0085518663569589e-08   6.3903512918142003e-08   3.0294816616693880e-08   4.1472890701453985e-08   2.4690694720900901e-08   3.2623501265384202e-08   3.3491460889367098e-08   3.7697851466523248e-08   5.6361565982086834e-08   5.6503088769590348e-08   9.2424494875527109e-08   8.8318205904750923e-08   1.4029634232742196e-07   1.3192151567901408e-07   1.9813873490726743e-07   1.8563727824790035e-07   2.6372897587819776e-07   2.4739961525796435e-07   3.3454454028937831e-07   3.1483114578382623e-07   4.0785829178712950e-07   3.8533314000706355e-07   4.8083986042838922e-07   4.5618339801598313e-07   5.5065694815636702e-07   5.2463747707567564e-07   6.1456608324808103e-07   5.8802821078922483e-07   6.6996965359200982e-07   6.4385759160433682e-07   7.1437730505845474e-07   6.8987450908506076e-07   7.4510595338384173e-07   7.2413628017183056e-07   7.5846031558236285e-07   7.4509422142390438e-07   7.5034141532153384e-07   7.5200887752761701e-07   7.3680864032448390e-07   7.4735544804277643e-07   6.8839447746366988e-07   6.5728394141570336e-07   6.5265280175946192e-07   6.4221748774647106e-07   6.0322352950837362e-07   5.9856833839488623e-07   5.4582110157700098e-07   5.4577990235542939e-07   4.8273149975686647e-07   4.8646212433701552e-07   4.1621167690349763e-07   4.2328614725306292e-07   3.4872113613611471e-07   3.5873813141965680e-07   2.8281186248525052e-07   2.9525333703890860e-07   2.2099951469222925e-07   2.3522516655581543e-07   1.6565296965219467e-07   1.8093104271348559e-07   1.1889743460965114e-07   1.3444123505307343e-07   8.2530182412349413e-08   9.7534182176126608e-08   5.7950273147995771e-08   7.1624687552604504e-08   4.6104191420478714e-08   5.7707475136564393e-08   4.7449148872518717e-08   5.6317728812383166e-08   6.1935298024419669e-08   6.7509759940111690e-08   8.9007448175229353e-08   9.0854399647335473e-08   1.2762614953017493e-07   1.2545507979549295e-07   1.7630726577043449e-07   1.6998189210059964e-07   2.3317841892327418e-07   2.2272224091595930e-07   2.9604998005802699e-07   2.8164606581252652e-07   3.6249758855849145e-07   3.4448303210718711e-07   4.2995245916768281e-07   4.0880859256081617e-07   4.9579483220386545e-07   4.7213543525308233e-07   5.5744451668167705e-07   5.3200660167288939e-07   6.1244011771646208e-07   5.8608666010120983e-07   6.5849596535441457e-07   6.3224838332558668e-07   6.9353394824941565e-07   6.6865658039421886e-07   7.1577340265621068e-07   6.9386479602757084e-07   7.2441665257120212e-07   7.0698037529163559e-07   7.2263966180463212e-07   7.0797655723873520e-07   7.0295422165292364e-07   6.9826469430228413e-07   6.2474766285386048e-07   5.9228235251994140e-07   5.8686241263836698e-07   5.7346525781357341e-07   5.3906621842388463e-07   5.2979393963133032e-07   4.8465420834670976e-07   4.7985941777199357e-07   4.2619191873647487e-07   4.2550102992859329e-07   3.6597541342656832e-07   3.6897412907632979e-07   3.0627995540264866e-07   3.1255511200020058e-07   2.4936266861931015e-07   2.5843628945217288e-07   1.9738751260210172e-07   2.0868748900636235e-07   1.5233880079245545e-07   1.6520446110560588e-07   1.1594098040488458e-07   1.2964529611701314e-07   8.9589724966115418e-08   1.0336805396894212e-07   7.4296705203708772e-08   8.7377697870136290e-08   7.0649744816273712e-08   8.2286312459960814e-08   7.8789610271552338e-08   8.8288613550506568e-08   9.8404152332820786e-08   1.0515372970949412e-07   1.2873991112238715e-07   1.3223350766349507e-07   1.6863065260198831e-07   1.6848694823810595e-07   2.1654165680737852e-07   2.1251976859717793e-07   2.7062795417471603e-07   2.6263751414852073e-07   3.2880412490945913e-07   3.1691012888825861e-07   3.8882274837143239e-07   3.7324545982043604e-07   4.4835812402715704e-07   4.2946884925958188e-07   5.0509152899707214e-07   4.8340580545862397e-07   5.5679428554121660e-07   5.3296483756582992e-07   6.0140639257763917e-07   5.7621812866437950e-07   6.3711544950301130e-07   6.1147932498982709e-07   6.6246494781548490e-07   6.3738125480012405e-07   6.7658375590482405e-07   6.5296192891680411e-07   6.7968758832487515e-07   6.5776605826434288e-07   6.7333802454663171e-07   6.5189288565246829e-07   6.4424639059169978e-07   6.3619875082559672e-07   5.5307735685673483e-07   5.1946442216548967e-07   5.1428102426848137e-07   4.9850107207064376e-07   4.6896787198812312e-07   4.5642291348938661e-07   4.1927083562274331e-07   4.1063019052444682e-07   3.6736320596398295e-07   3.6268031721174156e-07   3.1535748324815536e-07   3.1443780203491361e-07   2.6527325091441667e-07   2.6781295374278948e-07   2.1902545544860040e-07   2.2463170439481874e-07   1.7837727478556358e-07   1.8656366724218703e-07   1.4487966408717945e-07   1.5506983413833761e-07   1.1981258264959926e-07   1.3135500009282886e-07   1.0413501110543379e-07   1.1632531069863157e-07   9.8447137053164356e-08   1.1055457524741650e-07   1.0296649263577952e-07   1.1426220610851274e-07   1.1751897371266270e-07   1.2730440068587583e-07   1.4154502616980184e-07   1.4917920793998478e-07   1.7412069408753535e-07   1.7904537906701465e-07   2.1399265688622860e-07   2.1575429049844221e-07   2.5962584571851102e-07   2.5789369747600468e-07   3.0926174133619751e-07   3.0384161730760223e-07   3.6098503865897470e-07   3.5182826078368217e-07   4.1279604831131145e-07   4.0000364536753868e-07   4.6268605415363050e-07   4.4650836050425245e-07   5.0871301222036015e-07   4.8954495449564223e-07   5.4907585728713998e-07   5.2744764072875934e-07   5.8218820423362958e-07   5.5874857540457710e-07   6.0675799141987098e-07   5.8223988793460670e-07   6.2188870490522192e-07   5.9703151967384059e-07   6.2721504353686107e-07   6.0260330642383971e-07   6.2300265218022129e-07   5.9883907251989384e-07   6.0973592767310791e-07   5.8598382700901706e-07   5.7482179810094935e-07   5.6490745016314787e-07   4.7576463432577284e-07   4.4200284654930469e-07   4.3782254907106958e-07   4.2009017697201621e-07   3.9611675567211965e-07   3.8110710254237931e-07   3.5247361562235414e-07   3.4081568272002910e-07   3.0863071896168477e-07   3.0057536897900506e-07   2.6635117407855931e-07   2.6190717245266749e-07   2.2729593303435406e-07   2.2631356328380776e-07   1.9297468589807842e-07   1.9518430788568937e-07   1.6470388398274641e-07   1.6972915648409011e-07   1.4356460845749722e-07   1.5093145340783016e-07   1.3036431752661661e-07   1.3951395827517847e-07   1.2560668847360820e-07   1.3591398300897553e-07   1.2947220082888931e-07   1.4026814037400412e-07   1.4181084559308976e-07   1.5240768599138652e-07   1.6214747458115780e-07   1.7186507974082188e-07   1.8969965030459242e-07   1.9789179673582312e-07   2.2340731224484456e-07   2.2948684714236850e-07   2.6197309904903439e-07   2.6543497219300413e-07   3.0391175210228397e-07   3.0435307385464526e-07   3.4760668423856917e-07   3.4474310748396614e-07   3.9137154776404589e-07   3.8504942567855947e-07   4.3351451206466417e-07   4.2371841729005131e-07   4.7240302289399322e-07   4.5925825211849759e-07   5.0652717459203573e-07   4.9029663493039164e-07   5.3456065678074070e-07   5.1563470151391053e-07   5.5541965726653846e-07   5.3429552081249916e-07   5.6832148053664060e-07   5.4556590802277218e-07   5.7284227286382132e-07   5.4902978363384947e-07   5.6895560384783855e-07   5.4458873278008742e-07   5.5698796671254190e-07   5.3246023806524066e-07   5.3727217939124040e-07   5.1312441211731771e-07   4.9900048418402497e-07   4.8763892456486706e-07   3.9582671748495571e-07   3.6302513763219461e-07   3.6024883435333891e-07   3.4126021473637070e-07   3.2340843141411735e-07   3.0666345800069035e-07   2.8698716807826495e-07   2.7307094912174944e-07   2.5236609158305998e-07   2.4161148217111895e-07   2.2090695673514927e-07   2.1346368250362863e-07   1.9384485356797675e-07   1.8970758944173214e-07   1.7223302592521956e-07   1.7126589437695886e-07   1.5690617314151266e-07   1.5885729289854203e-07   1.4845302468827951e-07   1.5296517967995097e-07   1.4719662773566012e-07   1.5381922733598513e-07   1.5318331267424720e-07   1.6138777162172087e-07   1.6618139081642886e-07   1.7538008255160777e-07   1.8569008939128176e-07   1.9525816097732148e-07   2.1095862908811597e-07   2.2025767995274513e-07   2.4101482793779713e-07   2.4941739944693620e-07   2.7470218040349162e-07   2.8161602851711763e-07   3.1072400442067747e-07   3.1561518435889539e-07   3.4769297053424622e-07   3.5010683766403293e-07   3.8418413263324257e-07   3.8376345130173205e-07   4.1878948171343513e-07   4.1528892042924089e-07   4.5017206217080459e-07   4.4346841049389018e-07   4.7711785021830814e-07   4.6721526639171854e-07   4.9858391796529990e-07   4.8561332555311062e-07   5.1374185537376149e-07   4.9795318449074044e-07   5.2201571964848630e-07   5.0376116819687217e-07   5.2311299222717268e-07   5.0281975893834942e-07   5.1704302544522952e-07   4.9517774669710694e-07   5.0410757241922319e-07   4.8114711163514061e-07   4.8483897223191140e-07   4.6128322491757216e-07   4.5976336568050623e-07   4.3633495119417415e-07   4.1987473642375480e-07   4.0755634283461851e-07   3.1642663012852633e-07   2.8563683101506528e-07   2.8446822165469200e-07   2.6506652917649047e-07   2.5362025221735191e-07   2.3593222185341905e-07   2.2537912000099861e-07   2.0997634111484289e-07   2.0079717595402736e-07   1.8805678693708406e-07   1.8082517068493571e-07   1.7099223667401025e-07   1.6624357868940982e-07   1.5943199320826766e-07   1.5762311699605606e-07   1.5382322079133282e-07   1.5530088942911093e-07   1.5438737653051577e-07   1.5936856016891928e-07   1.6110825676428510e-07   1.6967032279694237e-07   1.7373149029012730e-07   1.8580993379425805e-07   1.9177437405117478e-07   2.0716649447512268e-07   2.1454484423430610e-07   2.3291852241309131e-07   2.4116846340326446e-07   2.6207552911749438e-07   2.7062227442698456e-07   2.9351598555377695e-07   3.0177422851116879e-07   3.2603027298492572e-07   3.3342671401774373e-07   3.5836700357558655e-07   3.6436255490319966e-07   3.8928096079637629e-07   3.9339174531623761e-07   4.1758085846175901e-07   4.1939715462372447e-07   4.4217515335971589e-07   4.4137747940866371e-07   4.6211427230810319e-07   4.5848583407215842e-07   4.7662782414249539e-07   4.7006255221162161e-07   4.8515562822535238e-07   4.7566100052044964e-07   4.8737159908507427e-07   4.7506545314476053e-07   4.8319942795164758e-07   4.6830027847885889e-07   4.7281813382870397e-07   4.5562976604916964e-07   4.5665348759033988e-07   4.3754780644910024e-07   4.3534853102611970e-07   4.1475648867330782e-07   4.0970856359738281e-07   3.8813398774726113e-07   3.8051671607595839e-07   3.5868493603910613e-07   3.4046021880658619e-07   3.2781343755774917e-07   2.4068259819638587e-07   2.1284881500672734e-07   2.1338194903671080e-07   1.9445868769895273e-07   1.8941467193219380e-07   1.7163166505373168e-07   1.7002618300107382e-07   1.5394721286650234e-07   1.5593471761128320e-07   1.4196599913986394e-07   1.4767929718153785e-07   1.3613241710302197e-07   1.4558176416701399e-07   1.3666489517838284e-07   1.4972888176213949e-07   1.4354323651925159e-07   1.5996618906638596e-07   1.5650630276258802e-07   1.7590338799411663e-07   1.7505986502803059e-07   1.9692968763126963e-07   1.9849441857483225e-07   2.2223777271806911e-07   2.2591204493404758e-07   2.5085520433261340e-07   2.5626092265467600e-07   2.8168200250608406e-07   2.8837589330232239e-07   3.1353300027041914e-07   3.2102338828279149e-07   3.4518338799789881e-07   3.5294894334625084e-07   3.7541573767880861e-07   3.8292547239745119e-07   4.0306673281157803e-07   4.0980045987307656e-07   4.2707183997398103e-07   4.3254027726603577e-07   4.4650624457693439e-07   4.5026994128836429e-07   4.6062053236831134e-07   4.6230680818987332e-07   4.6886982051132422e-07   4.6818693421573406e-07   4.7093530665663601e-07   4.6768311382858068e-07   4.6673746852390818e-07   4.6081391609368700e-07   4.5644033029756443e-07   4.4784334842577507e-07   4.4044619669655831e-07   4.2927105175774152e-07   4.1937994849831855e-07   4.0581314469968545e-07   3.9406155898009770e-07   3.7837401270421087e-07   3.6546543456940753e-07   3.4800965502015136e-07   3.3466741169834155e-07   3.1588466671559724e-07   3.0267984777379401e-07   2.8321952041817352e-07   2.6377249675218293e-07   2.5150519427059314e-07   1.7154942203212176e-07   1.4747921661776724e-07   1.4973149719045545e-07   1.3216608333871686e-07   1.3325297381432336e-07   1.1623926832849579e-07   1.2305575366537031e-07   1.0713585739870455e-07   1.1951420649207413e-07   1.0510895414919110e-07   1.2276103779004714e-07   1.1022647317075028e-07   1.3267240408988652e-07   1.2228820738174327e-07   1.4887055258298782e-07   1.4083044171932815e-07   1.7073637891978796e-07   1.6514240992765041e-07   1.9743234156671180e-07   1.9429249954365593e-07   2.2793445016506592e-07   2.2716324038641138e-07   2.6107171063755821e-07   2.6249380278565021e-07   2.9557128614472108e-07   2.9892828324883399e-07   3.3010754455090734e-07   3.3506780006787768e-07   3.6335308506476049e-07   3.6952430625858385e-07   3.9402979097945418e-07   4.0097400198180497e-07   4.2095796445702410e-07   4.2820827373670540e-07   4.4310167582959284e-07   4.5018019961139416e-07   4.5960860748496506e-07   4.6604483866770123e-07   4.6984288774242609e-07   4.7519176526976248e-07   4.7340968404450715e-07   4.7726860881659547e-07   4.7017064209940978e-07   4.7219470453080290e-07   4.6024959495719701e-07   4.6016433639955282e-07   4.4402829000176811e-07   4.4163944006220246e-07   4.2213215071014755e-07   4.1733201004167188e-07   3.9540627284288814e-07   3.8817680222371614e-07   3.6488198481342058e-07   3.5529523198233658e-07   3.3173455278579634e-07   3.1995167063963997e-07   2.9723297108864549e-07   2.8350374332621265e-07   2.6268315161453068e-07   2.4734937875149226e-07   2.2927385908312862e-07   2.1287010469552893e-07   1.9273307214702666e-07   1.8157624740259895e-07   1.1171271904348532e-07   9.2052795327754920e-08   9.5976902747314778e-08   8.0594232871697628e-08   8.7295905815521140e-08   7.1891331812821870e-08   8.6273911925350861e-08   7.1344208703003181e-08   9.2940452776203849e-08   7.8902995604572000e-08   1.0703746200125708e-07   9.4271642857029402e-08   1.2802316839955180e-07   1.1685805168831970e-07   1.5509263336892336e-07   1.4579437434232103e-07   1.8720769967057654e-07   1.7996980322664589e-07   2.2313624196925498e-07   2.1807280993535246e-07   2.6149921133287702e-07   2.5864110968335552e-07   3.0082354321550684e-07   3.0011753679299698e-07   3.3959878254206183e-07   3.4090970513927603e-07   3.7633518033901131e-07   3.7945113089650422e-07   4.0962099695619162e-07   4.1426142813084578e-07   4.3817680024669041e-07   4.4400323193517115e-07   4.6090467449337617e-07   4.6753364192739983e-07   4.7693045726544254e-07   4.8394819966438297e-07   4.8563739234194018e-07   4.9261570713316551e-07   4.8668991820080472e-07   4.9320254921731851e-07   4.8004668979951421e-07   4.8568558790909938e-07   4.6596233879341410e-07   4.7035313442561162e-07   4.4497789234372770e-07   4.4779395953816003e-07   4.1790016951086996e-07   4.1887475314634482e-07   3.8577083631495391e-07   3.8470687232214488e-07   3.4982612249378465e-07   3.4660360703134859e-07   3.1144851865062922e-07   3.0602953815711017e-07   2.7211214652446196e-07   2.6454387709358258e-07   2.3332365535854979e-07   2.2374001643381178e-07   1.9655971054836382e-07   1.8518430041698127e-07   1.6312636264305118e-07   1.5035629945766429e-07   1.3005561183356740e-07   1.2071857924700414e-07   6.3491298161982628e-08   4.8707703286024342e-08   5.4196974550386085e-08   4.1733576438666160e-08   5.3315610906385632e-08   4.0299115424605536e-08   6.1097133748478070e-08   4.7951996728250543e-08   7.7238187710699338e-08   6.4357470873833238e-08   1.0111823614421991e-07   8.8882762323170253e-08   1.3181966223204242e-07   1.2058529078737264e-07   1.6816345988027896e-07   1.5824723936103836e-07   2.0875419586486972e-07   2.0042217003328371e-07   2.5203331234076417e-07   2.4549049905737607e-07   2.9633880516782748e-07   2.9172156468090107e-07   3.3996898069918721e-07   3.3733996738335807e-07   3.8124780924641114e-07   3.8059367419596195e-07   4.1858933360276353e-07   4.1982127864407166e-07   4.5055863726040515e-07   4.5351582315583012e-07   4.7592701882551570e-07   4.8038271812513628e-07   4.9371924866889808e-07   4.9938952014645436e-07   5.0325109238254131e-07   5.0980564832353538e-07   5.0415566188819766e-07   5.1123050762357442e-07   4.9639758479864878e-07   5.0360893624697866e-07   4.8027444887053762e-07   4.8723338230409270e-07   4.5640546171930138e-07   4.6273272482331157e-07   4.2570774604213332e-07   4.3104816522723258e-07   3.8936114752981283e-07   3.9339710771178916e-07   3.4876285132975816e-07   3.5122640151974140e-07   3.0547347839989009e-07   3.0615671874766972e-07   2.6115667352187880e-07   2.5992017838503701e-07   2.1751450079267793e-07   2.1429360229838325e-07   1.7622095138522082e-07   1.7103003800464531e-07   1.3885481691307365e-07   1.3179163561437237e-07   1.0677893020588207e-07   9.8088880340210850e-08   7.8138646289255315e-08   7.1272560200686945e-08   2.8751514694865582e-08   1.9115349915356889e-08   2.6008070931974188e-08   1.7083939443831123e-08   3.2624692155525880e-08   2.2682570114034746e-08   4.8496940311584684e-08   3.7862415890700012e-08   7.3013975523574500e-08   6.2033961245217046e-08   1.0523435112401371e-07   9.4268559102020377e-08   1.4392020497680703e-07   1.3332808293615860e-07   1.8758536567045979e-07   1.7771206069351810e-07   2.3455243661730849e-07   2.2571538972213184e-07   2.8301717441666601e-07   2.7549390687016692e-07   3.3111774041160833e-07   3.2513524481829086e-07   3.7700618572646346e-07   3.7273227819901789e-07   4.1891942700306846e-07   4.1645636371964184e-07   4.5524698234834358e-07   4.5462757507733589e-07   4.84592859