<?xml version="1.0"?>
<VTKFile type="UnstructuredGrid"  version="0.1"  >
<UnstructuredGrid>
<Piece  NumberOfPoints="81" NumberOfCells="128">
<Points>
<DataArray  type="Float64"  NumberOfComponents="3"  format="ascii">0 0 0  0.125 0 0  0.25 0 0  0.375 0 0  0.5 0 0  0.625 0 0  0.75 0 0  0.875 0 0  1 0 0  0 0.125 0  0.125 0.125 0  0.25 0.125 0  0.375 0.125 0  0.5 0.125 0  0.625 0.125 0  0.75 0.125 0  0.875 0.125 0  1 0.125 0  0 0.25 0  0.125 0.25 0  0.25 0.25 0  0.375 0.25 0  0.5 0.25 0  0.625 0.25 0  0.75 0.25 0  0.875 0.25 0  1 0.25 0  0 0.375 0  0.125 0.375 0  0.25 0.375 0  0.375 0.375 0  0.5 0.375 0  0.625 0.375 0  0.75 0.375 0  0.875 0.375 0  1 0.375 0  0 0.5 0  0.125 0.5 0  0.25 0.5 0  0.375 0.5 0  0.5 0.5 0  0.625 0.5 0  0.75 0.5 0  0.875 0.5 0  1 0.5 0  0 0.625 0  0.125 0.625 0  0.25 0.625 0  0.375 0.625 0  0.5 0.625 0  0.625 0.625 0  0.75 0.625 0  0.875 0.625 0  1 0.625 0  0 0.75 0  0.125 0.75 0  0.25 0.75 0  0.375 0.75 0  0.5 0.75 0  0.625 0.75 0  0.75 0.75 0  0.875 0.75 0  1 0.75 0  0 0.875 0  0.125 0.875 0  0.25 0.875 0  0.375 0.875 0  0.5 0.875 0  0.625 0.875 0  0.75 0.875 0  0.875 0.875 0  1 0.875 0  0 1 0  0.125 1 0  0.25 1 0  0.375 1 0  0.5 1 0  0.625 1 0  0.75 1 0  0.875 1 0  1 1 0  </DataArray>
</Points>
<Cells>
<DataArray  type="UInt32"  Name="connectivity"  format="ascii">0 1 10  0 9 10  1 2 11  1 10 11  2 3 12  2 11 12  3 4 13  3 12 13  4 5 14  4 13 14  5 6 15  5 14 15  6 7 16  6 15 16  7 8 17  7 16 17  9 10 19  9 18 19  10 11 20  10 19 20  11 12 21  11 20 21  12 13 22  12 21 22  13 14 23  13 22 23  14 15 24  14 23 24  15 16 25  15 24 25  16 17 26  16 25 26  18 19 28  18 27 28  19 20 29  19 28 29  20 21 30  20 29 30  21 22 31  21 30 31  22 23 32  22 31 32  23 24 33  23 32 33  24 25 34  24 33 34  25 26 35  25 34 35  27 28 37  27 36 37  28 29 38  28 37 38  29 30 39  29 38 39  30 31 40  30 39 40  31 32 41  31 40 41  32 33 42  32 41 42  33 34 43  33 42 43  34 35 44  34 43 44  36 37 46  36 45 46  37 38 47  37 46 47  38 39 48  38 47 48  39 40 49  39 48 49  40 41 50  40 49 50  41 42 51  41 50 51  42 43 52  42 51 52  43 44 53  43 52 53  45 46 55  45 54 55  46 47 56  46 55 56  47 48 57  47 56 57  48 49 58  48 57 58  49 50 59  49 58 59  50 51 60  50 59 60  51 52 61  51 60 61  52 53 62  52 61 62  54 55 64  54 63 64  55 56 65  55 64 65  56 57 66  56 65 66  57 58 67  57 66 67  58 59 68  58 67 68  59 60 69  59 68 69  60 61 70  60 69 70  61 62 71  61 70 71  63 64 73  63 72 73  64 65 74  64 73 74  65 66 75  65 74 75  66 67 76  66 75 76  67 68 77  67 76 77  68 69 78  68 77 78  69 70 79  69 78 79  70 71 80  70 79 80  </DataArray>
<DataArray  type="UInt32"  Name="offsets"  format="ascii">3 6 9 12 15 18 21 24 27 30 33 36 39 42 45 48 51 54 57 60 63 66 69 72 75 78 81 84 87 90 93 96 99 102 105 108 111 114 117 120 123 126 129 132 135 138 141 144 147 150 153 156 159 162 165 168 171 174 177 180 183 186 189 192 195 198 201 204 207 210 213 216 219 222 225 228 231 234 237 240 243 246 249 252 255 258 261 264 267 270 273 276 279 282 285 288 291 294 297 300 303 306 309 312 315 318 321 324 327 330 333 336 339 342 345 348 351 354 357 360 363 366 369 372 375 378 381 384 </DataArray>
<DataArray  type="UInt8"  Name="types"  format="ascii">5 5 5 5 5 5 5 5 5 5 5 5 5 5 5 5 5 5 5 5 5 5 5 5 5 5 5 5 5 5 5 5 5 5 5 5 5 5 5 5 5 5 5 5 5 5 5 5 5 5 5 5 5 5 5 5 5 5 5 5 5 5 5 5 5 5 5 5 5 5 5 5 5 5 5 5 5 5 5 5 5 5 5 5 5 5 5 5 5 5 5 5 5 5 5 5 5 5 5 5 5 5 5 5 5 5 5 5 5 5 5 5 5 5 5 5 5 5 5 5 5 5 5 5 5 5 5 5 </DataArray>
</Cells>
<CellData  Scalars="f_47742"> 
<DataArray  type="Float64"  Name="f_47742"  format="ascii">1.2035925473126146e-06   1.1613171971076439e-06   6.9952533183660779e-07   8.0742108224241121e-07   2.2711056559000941e-07   3.6505189021334645e-07   6.3339880263399796e-08   1.4615937527888572e-07   3.0434730334143173e-07   2.7910647282156264e-07   8.0939542147786935e-07   6.8620380124594016e-07   1.2829203009545064e-06   1.1289960949259452e-06   1.4417079175630687e-06   1.3498085848349038e-06   7.5207980202468918e-07   5.8216366894395229e-07   4.3984146450223386e-07   4.0007915660965877e-07   2.7196690817434238e-07   3.1830621672851179e-07   3.4931322851489979e-07   4.2266785966395358e-07   6.2669016649590092e-07   6.5092094975163836e-07   9.4154014162448302e-07   8.6932418629238746e-07   1.1067650958029991e-06   9.4988858118328033e-07   1.0151262539749003e-06   8.4673946006546990e-07   2.5689789432666118e-07   1.2102915992697963e-07   2.7674142004025015e-07   1.8696308106607980e-07   4.7432871690232640e-07   4.4773896309261454e-07   7.3687516849311348e-07   7.6958751177657465e-07   9.1049296000555610e-07   9.6364112382767016e-07   8.9331009284006458e-07   9.1621415246128228e-07   6.9393861090243951e-07   6.5514581000657894e-07   4.1911803086349679e-07   3.3280376281344868e-07   7.1898412405761404e-08   4.8513859971587612e-08   3.5107348282936311e-07   2.9509800027204902e-07   7.3780965587277463e-07   6.8019061504086776e-07   1.0075550530952635e-06   9.8624203574364505e-07   1.0022137573850414e-06   1.0349053110839388e-06   7.2491955290894240e-07   7.9769828039378955e-07   3.3805131200230253e-07   4.1363931999825396e-07   5.8883502248930271e-08   1.0487216445267456e-07   3.0465858010709139e-07   4.0734181201953994e-07   6.1775082417455799e-07   6.6114457805460508e-07   9.0716128719584211e-07   8.7936999789139281e-07   1.0031472234456849e-06   9.4558238617168950e-07   8.4941096220015233e-07   8.2285747056107121e-07   5.3611770980322389e-07   5.8309238419812067e-07   2.4780402503772862e-07   3.6671540003936203e-07   1.4634379223291356e-07   2.9648035221931051e-07   8.1885542730297151e-07   9.8762651012417789e-07   9.2049950263662320e-07   1.0705222799794504e-06   8.8315646372724799e-07   9.2832911400629252e-07   7.2624168873634846e-07   6.7135656883893493e-07   5.4158736920318166e-07   4.5178354682711919e-07   4.3746808754909579e-07   3.9819657393378661e-07   4.7616150673092528e-07   5.4185271652955002e-07   6.3051944746254697e-07   7.9525270272508962e-07   1.3131899807154090e-06   1.4488627698661396e-06   1.0818385445372713e-06   1.2800721705499695e-06   6.7985824483342694e-07   7.9623536054860804e-07   3.3907208762183127e-07   3.2358842843659775e-07   2.5901076585164219e-07   1.3949120286918091e-07   4.8662539890086998e-07   3.5195933299100536e-07   8.8925111116024519e-07   8.3660241673954705e-07   1.2279294704240062e-06   1.3087863989827813e-06   1.4981758331400444e-06   1.5185961890598605e-06   1.0085251019760728e-06   1.1689247058676881e-06   4.1672388841488051e-07   5.5827874718966921e-07   6.6589666200025555e-08   9.8965853351946263e-08   1.6333618079698269e-07   6.1775496720341245e-08   6.5049524750740786e-07   4.6892857330874210e-07   1.2436917377353064e-06   1.0820306522859458e-06   1.5880568037373767e-06   1.5414015996974545e-06   </DataArray> 
</CellData> 
</Piece>
</UnstructuredGrid>
</VTKFile>