<?xml version="1.0"?>
<VTKFile type="UnstructuredGrid"  version="0.1"  >
<UnstructuredGrid>
<Piece  NumberOfPoints="25" NumberOfCells="32">
<Points>
<DataArray  type="Float64"  NumberOfComponents="3"  format="ascii">0 0 0  0.25 0 0  0.5 0 0  0.75 0 0  1 0 0  0 0.25 0  0.25 0.25 0  0.5 0.25 0  0.75 0.25 0  1 0.25 0  0 0.5 0  0.25 0.5 0  0.5 0.5 0  0.75 0.5 0  1 0.5 0  0 0.75 0  0.25 0.75 0  0.5 0.75 0  0.75 0.75 0  1 0.75 0  0 1 0  0.25 1 0  0.5 1 0  0.75 1 0  1 1 0  </DataArray>
</Points>
<Cells>
<DataArray  type="UInt32"  Name="connectivity"  format="ascii">0 1 6  0 5 6  1 2 7  1 6 7  2 3 8  2 7 8  3 4 9  3 8 9  5 6 11  5 10 11  6 7 12  6 11 12  7 8 13  7 12 13  8 9 14  8 13 14  10 11 16  10 15 16  11 12 17  11 16 17  12 13 18  12 17 18  13 14 19  13 18 19  15 16 21  15 20 21  16 17 22  16 21 22  17 18 23  17 22 23  18 19 24  18 23 24  </DataArray>
<DataArray  type="UInt32"  Name="offsets"  format="ascii">3 6 9 12 15 18 21 24 27 30 33 36 39 42 45 48 51 54 57 60 63 66 69 72 75 78 81 84 87 90 93 96 </DataArray>
<DataArray  type="UInt8"  Name="types"  format="ascii">5 5 5 5 5 5 5 5 5 5 5 5 5 5 5 5 5 5 5 5 5 5 5 5 5 5 5 5 5 5 5 5 </DataArray>
</Cells>
<CellData  Scalars="f_64857"> 
<DataArray  type="Float64"  Name="f_64857"  format="ascii">1.8920974901627059e-05   2.6023064040643551e-05   4.2728441424540409e-05   2.7086093120597961e-05   2.9236410361552443e-05   3.6450727448856169e-05   4.9529862538266312e-06   3.5667185605354697e-05   3.4092513564816872e-05   4.8534802220548677e-05   8.9800677473890962e-06   1.2890655861327760e-05   1.5267098249454706e-05   4.8059773609079908e-06   4.0152802823304043e-05   4.0133090224947580e-05   4.3498994310241506e-05   2.3802449913562722e-05   1.3219552121325084e-05   2.0571587366581327e-05   1.7265984508961610e-05   2.2403822946659686e-05   4.7774982410153268e-05   2.5309813032002543e-05   2.8462271879711401e-05   9.6279634200859652e-07   4.6677342600811375e-05   3.4287682295469796e-05   3.0610794514724397e-05   5.4335677255821812e-05   1.2528946578286573e-05   2.1200911352421342e-05   </DataArray> 
</CellData> 
</Piece>
</UnstructuredGrid>
</VTKFile>