<?xml version="1.0"?>
<VTKFile type="UnstructuredGrid"  version="0.1"  >
<UnstructuredGrid>
<Piece  NumberOfPoints="81" NumberOfCells="128">
<Points>
<DataArray  type="Float64"  NumberOfComponents="3"  format="ascii">0 0 0  0.125 0 0  0.25 0 0  0.375 0 0  0.5 0 0  0.625 0 0  0.75 0 0  0.875 0 0  1 0 0  0 0.125 0  0.125 0.125 0  0.25 0.125 0  0.375 0.125 0  0.5 0.125 0  0.625 0.125 0  0.75 0.125 0  0.875 0.125 0  1 0.125 0  0 0.25 0  0.125 0.25 0  0.25 0.25 0  0.375 0.25 0  0.5 0.25 0  0.625 0.25 0  0.75 0.25 0  0.875 0.25 0  1 0.25 0  0 0.375 0  0.125 0.375 0  0.25 0.375 0  0.375 0.375 0  0.5 0.375 0  0.625 0.375 0  0.75 0.375 0  0.875 0.375 0  1 0.375 0  0 0.5 0  0.125 0.5 0  0.25 0.5 0  0.375 0.5 0  0.5 0.5 0  0.625 0.5 0  0.75 0.5 0  0.875 0.5 0  1 0.5 0  0 0.625 0  0.125 0.625 0  0.25 0.625 0  0.375 0.625 0  0.5 0.625 0  0.625 0.625 0  0.75 0.625 0  0.875 0.625 0  1 0.625 0  0 0.75 0  0.125 0.75 0  0.25 0.75 0  0.375 0.75 0  0.5 0.75 0  0.625 0.75 0  0.75 0.75 0  0.875 0.75 0  1 0.75 0  0 0.875 0  0.125 0.875 0  0.25 0.875 0  0.375 0.875 0  0.5 0.875 0  0.625 0.875 0  0.75 0.875 0  0.875 0.875 0  1 0.875 0  0 1 0  0.125 1 0  0.25 1 0  0.375 1 0  0.5 1 0  0.625 1 0  0.75 1 0  0.875 1 0  1 1 0  </DataArray>
</Points>
<Cells>
<DataArray  type="UInt32"  Name="connectivity"  format="ascii">0 1 10  0 9 10  1 2 11  1 10 11  2 3 12  2 11 12  3 4 13  3 12 13  4 5 14  4 13 14  5 6 15  5 14 15  6 7 16  6 15 16  7 8 17  7 16 17  9 10 19  9 18 19  10 11 20  10 19 20  11 12 21  11 20 21  12 13 22  12 21 22  13 14 23  13 22 23  14 15 24  14 23 24  15 16 25  15 24 25  16 17 26  16 25 26  18 19 28  18 27 28  19 20 29  19 28 29  20 21 30  20 29 30  21 22 31  21 30 31  22 23 32  22 31 32  23 24 33  23 32 33  24 25 34  24 33 34  25 26 35  25 34 35  27 28 37  27 36 37  28 29 38  28 37 38  29 30 39  29 38 39  30 31 40  30 39 40  31 32 41  31 40 41  32 33 42  32 41 42  33 34 43  33 42 43  34 35 44  34 43 44  36 37 46  36 45 46  37 38 47  37 46 47  38 39 48  38 47 48  39 40 49  39 48 49  40 41 50  40 49 50  41 42 51  41 50 51  42 43 52  42 51 52  43 44 53  43 52 53  45 46 55  45 54 55  46 47 56  46 55 56  47 48 57  47 56 57  48 49 58  48 57 58  49 50 59  49 58 59  50 51 60  50 59 60  51 52 61  51 60 61  52 53 62  52 61 62  54 55 64  54 63 64  55 56 65  55 64 65  56 57 66  56 65 66  57 58 67  57 66 67  58 59 68  58 67 68  59 60 69  59 68 69  60 61 70  60 69 70  61 62 71  61 70 71  63 64 73  63 72 73  64 65 74  64 73 74  65 66 75  65 74 75  66 67 76  66 75 76  67 68 77  67 76 77  68 69 78  68 77 78  69 70 79  69 78 79  70 71 80  70 79 80  </DataArray>
<DataArray  type="UInt32"  Name="offsets"  format="ascii">3 6 9 12 15 18 21 24 27 30 33 36 39 42 45 48 51 54 57 60 63 66 69 72 75 78 81 84 87 90 93 96 99 102 105 108 111 114 117 120 123 126 129 132 135 138 141 144 147 150 153 156 159 162 165 168 171 174 177 180 183 186 189 192 195 198 201 204 207 210 213 216 219 222 225 228 231 234 237 240 243 246 249 252 255 258 261 264 267 270 273 276 279 282 285 288 291 294 297 300 303 306 309 312 315 318 321 324 327 330 333 336 339 342 345 348 351 354 357 360 363 366 369 372 375 378 381 384 </DataArray>
<DataArray  type="UInt8"  Name="types"  format="ascii">5 5 5 5 5 5 5 5 5 5 5 5 5 5 5 5 5 5 5 5 5 5 5 5 5 5 5 5 5 5 5 5 5 5 5 5 5 5 5 5 5 5 5 5 5 5 5 5 5 5 5 5 5 5 5 5 5 5 5 5 5 5 5 5 5 5 5 5 5 5 5 5 5 5 5 5 5 5 5 5 5 5 5 5 5 5 5 5 5 5 5 5 5 5 5 5 5 5 5 5 5 5 5 5 5 5 5 5 5 5 5 5 5 5 5 5 5 5 5 5 5 5 5 5 5 5 5 5 </DataArray>
</Cells>
<CellData  Scalars="f_38991"> 
<DataArray  type="Float64"  Name="f_38991"  format="ascii">2.0169207446824129e-05   1.8637658450573350e-05   9.6263697551562525e-06   1.2206402981500145e-05   2.0869354737703736e-06   6.6585584807507916e-06   8.0913863655777827e-07   9.4560063217570375e-06   4.1780911918173942e-06   1.5659507798464865e-05   7.8595729856761507e-06   1.8741303018128319e-05   7.9811570949419306e-06   1.5166815578876268e-05   3.9948922211183594e-06   6.8188210784602958e-06   6.1804568881808846e-06   4.5702559512392920e-06   2.3301059763519240e-06   3.4111538507501435e-06   5.4237710792868658e-06   6.2766037129983411e-06   1.1493553189640444e-05   1.0174674940186563e-05   1.5020119087513032e-05   1.1206596874901598e-05   1.3020136258541182e-05   8.1554861346005218e-06   7.1502184818022251e-06   3.1443443149021440e-06   1.5340263598668008e-06   1.8119880185870228e-07   1.7947372829501464e-06   6.8026060816565001e-07   4.8666438189754987e-06   4.6954084030805936e-06   8.9439527289707301e-06   7.9642794368236918e-06   1.0662636008745063e-05   7.9272895823408342e-06   8.9173098377911010e-06   4.8830249567732716e-06   5.4988556305497618e-06   1.3734633591396906e-06   3.6932800430689142e-06   3.5072573138223563e-07   1.0454314200082167e-06   2.9799564722002487e-06   7.3962157565899504e-06   3.5053476879101272e-06   9.5300484946946951e-06   9.0143745835949892e-06   8.6567573123496679e-06   7.8010278789568745e-06   5.6536933258595114e-06   4.0720182875053459e-06   2.9796326175134852e-06   9.4966144001198147e-07   2.9939200275461475e-06   8.5718862941814667e-07   6.0742660439968030e-06   4.0192211109458251e-06   3.3751549107492244e-06   8.1542389069377630e-06   1.2410809380111276e-05   6.3082358144654875e-06   9.6750496923728342e-06   9.8510797802222567e-06   4.6483462019862269e-06   5.3929217361985417e-06   9.7234029775551183e-07   1.9650887058970084e-06   9.8156513037798293e-07   1.7558066895007642e-06   4.3888414161873558e-06   4.4073587400510593e-06   8.3337573251600111e-06   7.6218098813250118e-06   3.9876723784110112e-06   8.7660585412173318e-06   1.0263045869172613e-05   5.0323971968543817e-06   4.8109954108462251e-06   6.3717611449820256e-06   7.5775223141340757e-07   3.8773780910692743e-06   4.2579264349800964e-07   4.2469064588107447e-06   3.1637914661026857e-06   6.2500053580742759e-06   6.2121017207212660e-06   7.5325911261354642e-06   6.6693899386482756e-06   6.6065061665932897e-06   1.8392071997771680e-06   4.1034446162348039e-06   3.1114656583175809e-06   1.5302611031591268e-06   4.7830477090948382e-07   3.8328471989557685e-06   1.5818659649604839e-06   6.9149261294290060e-06   4.7864310029465450e-06   1.0138771334501313e-05   7.0398224928220088e-06   1.0371754658723092e-05   6.2595379496589004e-06   6.9304992875538050e-06   3.0199433761478613e-06   2.3504312842147796e-06   6.1342814617435152e-07   8.9537326219929068e-07   3.1402939769113240e-07   1.8443933755945137e-07   3.8366498926265130e-06   1.0755440628706134e-06   8.7544600007249903e-06   1.8700319446718610e-06   1.1232102620230390e-05   1.6537521874659984e-06   9.6350853130631885e-06   6.4715502587427219e-07   5.8160943176747766e-06   2.2988438211817693e-07   4.1049001305887028e-06   2.0627558443245300e-06   6.0055738429434773e-06   6.6011731260349805e-06   </DataArray> 
</CellData> 
</Piece>
</UnstructuredGrid>
</VTKFile>