<?xml version="1.0"?>
<VTKFile type="UnstructuredGrid"  version="0.1"  >
<UnstructuredGrid>
<Piece  NumberOfPoints="25" NumberOfCells="32">
<Points>
<DataArray  type="Float64"  NumberOfComponents="3"  format="ascii">0 0 0  0.25 0 0  0.5 0 0  0.75 0 0  1 0 0  0 0.25 0  0.25 0.25 0  0.5 0.25 0  0.75 0.25 0  1 0.25 0  0 0.5 0  0.25 0.5 0  0.5 0.5 0  0.75 0.5 0  1 0.5 0  0 0.75 0  0.25 0.75 0  0.5 0.75 0  0.75 0.75 0  1 0.75 0  0 1 0  0.25 1 0  0.5 1 0  0.75 1 0  1 1 0  </DataArray>
</Points>
<Cells>
<DataArray  type="UInt32"  Name="connectivity"  format="ascii">0 1 6  0 5 6  1 2 7  1 6 7  2 3 8  2 7 8  3 4 9  3 8 9  5 6 11  5 10 11  6 7 12  6 11 12  7 8 13  7 12 13  8 9 14  8 13 14  10 11 16  10 15 16  11 12 17  11 16 17  12 13 18  12 17 18  13 14 19  13 18 19  15 16 21  15 20 21  16 17 22  16 21 22  17 18 23  17 22 23  18 19 24  18 23 24  </DataArray>
<DataArray  type="UInt32"  Name="offsets"  format="ascii">3 6 9 12 15 18 21 24 27 30 33 36 39 42 45 48 51 54 57 60 63 66 69 72 75 78 81 84 87 90 93 96 </DataArray>
<DataArray  type="UInt8"  Name="types"  format="ascii">5 5 5 5 5 5 5 5 5 5 5 5 5 5 5 5 5 5 5 5 5 5 5 5 5 5 5 5 5 5 5 5 </DataArray>
</Cells>
<CellData  Scalars="f_64854"> 
<DataArray  type="Float64"  Name="f_64854"  format="ascii">7.4526598738597277e-06   8.6335929561092250e-06   8.6917574748658227e-06   1.9051710414313555e-05   1.6766020115453657e-06   1.2477711665180189e-05   2.1216853840689492e-06   4.4874975426199244e-06   3.9516091218598402e-05   3.0391756205877310e-05   1.9880315186355835e-05   1.8351400744662814e-05   1.0217393777778872e-05   7.3680231199297221e-06   2.6916766471367631e-05   3.8064121740400347e-05   3.7883275443079000e-05   2.6762931338404393e-05   7.4051621483307471e-06   1.0231934519020867e-05   1.8149696642846103e-05   1.9669182137203341e-05   3.0510932674835541e-05   3.9440132472788559e-05   4.6149292729349049e-06   2.2714952656850814e-06   1.2417303265717655e-05   1.5920850798456975e-06   1.8925054870165363e-05   8.7672173119098772e-06   8.7039883636402725e-06   7.5218739754041508e-06   </DataArray> 
</CellData> 
</Piece>
</UnstructuredGrid>
</VTKFile>