<?xml version="1.0"?>
<VTKFile type="UnstructuredGrid"  version="0.1"  >
<UnstructuredGrid>
<Piece  NumberOfPoints="25" NumberOfCells="32">
<Points>
<DataArray  type="Float64"  NumberOfComponents="3"  format="ascii">0 0 0  0.25 0 0  0.5 0 0  0.75 0 0  1 0 0  0 0.25 0  0.25 0.25 0  0.5 0.25 0  0.75 0.25 0  1 0.25 0  0 0.5 0  0.25 0.5 0  0.5 0.5 0  0.75 0.5 0  1 0.5 0  0 0.75 0  0.25 0.75 0  0.5 0.75 0  0.75 0.75 0  1 0.75 0  0 1 0  0.25 1 0  0.5 1 0  0.75 1 0  1 1 0  </DataArray>
</Points>
<Cells>
<DataArray  type="UInt32"  Name="connectivity"  format="ascii">0 1 6  0 5 6  1 2 7  1 6 7  2 3 8  2 7 8  3 4 9  3 8 9  5 6 11  5 10 11  6 7 12  6 11 12  7 8 13  7 12 13  8 9 14  8 13 14  10 11 16  10 15 16  11 12 17  11 16 17  12 13 18  12 17 18  13 14 19  13 18 19  15 16 21  15 20 21  16 17 22  16 21 22  17 18 23  17 22 23  18 19 24  18 23 24  </DataArray>
<DataArray  type="UInt32"  Name="offsets"  format="ascii">3 6 9 12 15 18 21 24 27 30 33 36 39 42 45 48 51 54 57 60 63 66 69 72 75 78 81 84 87 90 93 96 </DataArray>
<DataArray  type="UInt8"  Name="types"  format="ascii">5 5 5 5 5 5 5 5 5 5 5 5 5 5 5 5 5 5 5 5 5 5 5 5 5 5 5 5 5 5 5 5 </DataArray>
</Cells>
<CellData  Scalars="f_34767"> 
<DataArray  type="Float64"  Name="f_34767"  format="ascii">1.1252909462559202e-37   1.1252909462559202e-37   2.7604219553489508e-38   2.7604219553489508e-38   2.1122164116338000e-38   2.1122164116338000e-38   1.5101837145980769e-39   1.5101837145980769e-39   1.7224257501632147e-38   1.7224257501632147e-38   1.1372295607564582e-37   1.1372295607564582e-37   1.0718957450114233e-37   1.0718957450114233e-37   7.3468396926392930e-39   7.3468396926392930e-39   1.7142625949491710e-38   1.7142625949491710e-38   2.0939649039555249e-38   2.0939649039555249e-38   3.5509725181089913e-39   3.5509725181089913e-39   4.0815776070218360e-39   4.0815776070218360e-39   0.0000000000000000e+00   0.0000000000000000e+00   2.5887724845786519e-39   2.5887724845786519e-39   2.1632361317215725e-39   2.1632361317215725e-39   1.4622251777155723e-38   1.4622251777155723e-38   </DataArray> 
</CellData> 
</Piece>
</UnstructuredGrid>
</VTKFile>