<?xml version="1.0"?>
<VTKFile type="UnstructuredGrid"  version="0.1"  >
<UnstructuredGrid>
<Piece  NumberOfPoints="1089" NumberOfCells="2048">
<Points>
<DataArray  type="Float64"  NumberOfComponents="3"  format="ascii">0 0 0  0.03125 0 0  0.0625 0 0  0.09375 0 0  0.125 0 0  0.15625 0 0  0.1875 0 0  0.21875 0 0  0.25 0 0  0.28125 0 0  0.3125 0 0  0.34375 0 0  0.375 0 0  0.40625 0 0  0.4375 0 0  0.46875 0 0  0.5 0 0  0.53125 0 0  0.5625 0 0  0.59375 0 0  0.625 0 0  0.65625 0 0  0.6875 0 0  0.71875 0 0  0.75 0 0  0.78125 0 0  0.8125 0 0  0.84375 0 0  0.875 0 0  0.90625 0 0  0.9375 0 0  0.96875 0 0  1 0 0  0 0.03125 0  0.03125 0.03125 0  0.0625 0.03125 0  0.09375 0.03125 0  0.125 0.03125 0  0.15625 0.03125 0  0.1875 0.03125 0  0.21875 0.03125 0  0.25 0.03125 0  0.28125 0.03125 0  0.3125 0.03125 0  0.34375 0.03125 0  0.375 0.03125 0  0.40625 0.03125 0  0.4375 0.03125 0  0.46875 0.03125 0  0.5 0.03125 0  0.53125 0.03125 0  0.5625 0.03125 0  0.59375 0.03125 0  0.625 0.03125 0  0.65625 0.03125 0  0.6875 0.03125 0  0.71875 0.03125 0  0.75 0.03125 0  0.78125 0.03125 0  0.8125 0.03125 0  0.84375 0.03125 0  0.875 0.03125 0  0.90625 0.03125 0  0.9375 0.03125 0  0.96875 0.03125 0  1 0.03125 0  0 0.0625 0  0.03125 0.0625 0  0.0625 0.0625 0  0.09375 0.0625 0  0.125 0.0625 0  0.15625 0.0625 0  0.1875 0.0625 0  0.21875 0.0625 0  0.25 0.0625 0  0.28125 0.0625 0  0.3125 0.0625 0  0.34375 0.0625 0  0.375 0.0625 0  0.40625 0.0625 0  0.4375 0.0625 0  0.46875 0.0625 0  0.5 0.0625 0  0.53125 0.0625 0  0.5625 0.0625 0  0.59375 0.0625 0  0.625 0.0625 0  0.65625 0.0625 0  0.6875 0.0625 0  0.71875 0.0625 0  0.75 0.0625 0  0.78125 0.0625 0  0.8125 0.0625 0  0.84375 0.0625 0  0.875 0.0625 0  0.90625 0.0625 0  0.9375 0.0625 0  0.96875 0.0625 0  1 0.0625 0  0 0.09375 0  0.03125 0.09375 0  0.0625 0.09375 0  0.09375 0.09375 0  0.125 0.09375 0  0.15625 0.09375 0  0.1875 0.09375 0  0.21875 0.09375 0  0.25 0.09375 0  0.28125 0.09375 0  0.3125 0.09375 0  0.34375 0.09375 0  0.375 0.09375 0  0.40625 0.09375 0  0.4375 0.09375 0  0.46875 0.09375 0  0.5 0.09375 0  0.53125 0.09375 0  0.5625 0.09375 0  0.59375 0.09375 0  0.625 0.09375 0  0.65625 0.09375 0  0.6875 0.09375 0  0.71875 0.09375 0  0.75 0.09375 0  0.78125 0.09375 0  0.8125 0.09375 0  0.84375 0.09375 0  0.875 0.09375 0  0.90625 0.09375 0  0.9375 0.09375 0  0.96875 0.09375 0  1 0.09375 0  0 0.125 0  0.03125 0.125 0  0.0625 0.125 0  0.09375 0.125 0  0.125 0.125 0  0.15625 0.125 0  0.1875 0.125 0  0.21875 0.125 0  0.25 0.125 0  0.28125 0.125 0  0.3125 0.125 0  0.34375 0.125 0  0.375 0.125 0  0.40625 0.125 0  0.4375 0.125 0  0.46875 0.125 0  0.5 0.125 0  0.53125 0.125 0  0.5625 0.125 0  0.59375 0.125 0  0.625 0.125 0  0.65625 0.125 0  0.6875 0.125 0  0.71875 0.125 0  0.75 0.125 0  0.78125 0.125 0  0.8125 0.125 0  0.84375 0.125 0  0.875 0.125 0  0.90625 0.125 0  0.9375 0.125 0  0.96875 0.125 0  1 0.125 0  0 0.15625 0  0.03125 0.15625 0  0.0625 0.15625 0  0.09375 0.15625 0  0.125 0.15625 0  0.15625 0.15625 0  0.1875 0.15625 0  0.21875 0.15625 0  0.25 0.15625 0  0.28125 0.15625 0  0.3125 0.15625 0  0.34375 0.15625 0  0.375 0.15625 0  0.40625 0.15625 0  0.4375 0.15625 0  0.46875 0.15625 0  0.5 0.15625 0  0.53125 0.15625 0  0.5625 0.15625 0  0.59375 0.15625 0  0.625 0.15625 0  0.65625 0.15625 0  0.6875 0.15625 0  0.71875 0.15625 0  0.75 0.15625 0  0.78125 0.15625 0  0.8125 0.15625 0  0.84375 0.15625 0  0.875 0.15625 0  0.90625 0.15625 0  0.9375 0.15625 0  0.96875 0.15625 0  1 0.15625 0  0 0.1875 0  0.03125 0.1875 0  0.0625 0.1875 0  0.09375 0.1875 0  0.125 0.1875 0  0.15625 0.1875 0  0.1875 0.1875 0  0.21875 0.1875 0  0.25 0.1875 0  0.28125 0.1875 0  0.3125 0.1875 0  0.34375 0.1875 0  0.375 0.1875 0  0.40625 0.1875 0  0.4375 0.1875 0  0.46875 0.1875 0  0.5 0.1875 0  0.53125 0.1875 0  0.5625 0.1875 0  0.59375 0.1875 0  0.625 0.1875 0  0.65625 0.1875 0  0.6875 0.1875 0  0.71875 0.1875 0  0.75 0.1875 0  0.78125 0.1875 0  0.8125 0.1875 0  0.84375 0.1875 0  0.875 0.1875 0  0.90625 0.1875 0  0.9375 0.1875 0  0.96875 0.1875 0  1 0.1875 0  0 0.21875 0  0.03125 0.21875 0  0.0625 0.21875 0  0.09375 0.21875 0  0.125 0.21875 0  0.15625 0.21875 0  0.1875 0.21875 0  0.21875 0.21875 0  0.25 0.21875 0  0.28125 0.21875 0  0.3125 0.21875 0  0.34375 0.21875 0  0.375 0.21875 0  0.40625 0.21875 0  0.4375 0.21875 0  0.46875 0.21875 0  0.5 0.21875 0  0.53125 0.21875 0  0.5625 0.21875 0  0.59375 0.21875 0  0.625 0.21875 0  0.65625 0.21875 0  0.6875 0.21875 0  0.71875 0.21875 0  0.75 0.21875 0  0.78125 0.21875 0  0.8125 0.21875 0  0.84375 0.21875 0  0.875 0.21875 0  0.90625 0.21875 0  0.9375 0.21875 0  0.96875 0.21875 0  1 0.21875 0  0 0.25 0  0.03125 0.25 0  0.0625 0.25 0  0.09375 0.25 0  0.125 0.25 0  0.15625 0.25 0  0.1875 0.25 0  0.21875 0.25 0  0.25 0.25 0  0.28125 0.25 0  0.3125 0.25 0  0.34375 0.25 0  0.375 0.25 0  0.40625 0.25 0  0.4375 0.25 0  0.46875 0.25 0  0.5 0.25 0  0.53125 0.25 0  0.5625 0.25 0  0.59375 0.25 0  0.625 0.25 0  0.65625 0.25 0  0.6875 0.25 0  0.71875 0.25 0  0.75 0.25 0  0.78125 0.25 0  0.8125 0.25 0  0.84375 0.25 0  0.875 0.25 0  0.90625 0.25 0  0.9375 0.25 0  0.96875 0.25 0  1 0.25 0  0 0.28125 0  0.03125 0.28125 0  0.0625 0.28125 0  0.09375 0.28125 0  0.125 0.28125 0  0.15625 0.28125 0  0.1875 0.28125 0  0.21875 0.28125 0  0.25 0.28125 0  0.28125 0.28125 0  0.3125 0.28125 0  0.34375 0.28125 0  0.375 0.28125 0  0.40625 0.28125 0  0.4375 0.28125 0  0.46875 0.28125 0  0.5 0.28125 0  0.53125 0.28125 0  0.5625 0.28125 0  0.59375 0.28125 0  0.625 0.28125 0  0.65625 0.28125 0  0.6875 0.28125 0  0.71875 0.28125 0  0.75 0.28125 0  0.78125 0.28125 0  0.8125 0.28125 0  0.84375 0.28125 0  0.875 0.28125 0  0.90625 0.28125 0  0.9375 0.28125 0  0.96875 0.28125 0  1 0.28125 0  0 0.3125 0  0.03125 0.3125 0  0.0625 0.3125 0  0.09375 0.3125 0  0.125 0.3125 0  0.15625 0.3125 0  0.1875 0.3125 0  0.21875 0.3125 0  0.25 0.3125 0  0.28125 0.3125 0  0.3125 0.3125 0  0.34375 0.3125 0  0.375 0.3125 0  0.40625 0.3125 0  0.4375 0.3125 0  0.46875 0.3125 0  0.5 0.3125 0  0.53125 0.3125 0  0.5625 0.3125 0  0.59375 0.3125 0  0.625 0.3125 0  0.65625 0.3125 0  0.6875 0.3125 0  0.71875 0.3125 0  0.75 0.3125 0  0.78125 0.3125 0  0.8125 0.3125 0  0.84375 0.3125 0  0.875 0.3125 0  0.90625 0.3125 0  0.9375 0.3125 0  0.96875 0.3125 0  1 0.3125 0  0 0.34375 0  0.03125 0.34375 0  0.0625 0.34375 0  0.09375 0.34375 0  0.125 0.34375 0  0.15625 0.34375 0  0.1875 0.34375 0  0.21875 0.34375 0  0.25 0.34375 0  0.28125 0.34375 0  0.3125 0.34375 0  0.34375 0.34375 0  0.375 0.34375 0  0.40625 0.34375 0  0.4375 0.34375 0  0.46875 0.34375 0  0.5 0.34375 0  0.53125 0.34375 0  0.5625 0.34375 0  0.59375 0.34375 0  0.625 0.34375 0  0.65625 0.34375 0  0.6875 0.34375 0  0.71875 0.34375 0  0.75 0.34375 0  0.78125 0.34375 0  0.8125 0.34375 0  0.84375 0.34375 0  0.875 0.34375 0  0.90625 0.34375 0  0.9375 0.34375 0  0.96875 0.34375 0  1 0.34375 0  0 0.375 0  0.03125 0.375 0  0.0625 0.375 0  0.09375 0.375 0  0.125 0.375 0  0.15625 0.375 0  0.1875 0.375 0  0.21875 0.375 0  0.25 0.375 0  0.28125 0.375 0  0.3125 0.375 0  0.34375 0.375 0  0.375 0.375 0  0.40625 0.375 0  0.4375 0.375 0  0.46875 0.375 0  0.5 0.375 0  0.53125 0.375 0  0.5625 0.375 0  0.59375 0.375 0  0.625 0.375 0  0.65625 0.375 0  0.6875 0.375 0  0.71875 0.375 0  0.75 0.375 0  0.78125 0.375 0  0.8125 0.375 0  0.84375 0.375 0  0.875 0.375 0  0.90625 0.375 0  0.9375 0.375 0  0.96875 0.375 0  1 0.375 0  0 0.40625 0  0.03125 0.40625 0  0.0625 0.40625 0  0.09375 0.40625 0  0.125 0.40625 0  0.15625 0.40625 0  0.1875 0.40625 0  0.21875 0.40625 0  0.25 0.40625 0  0.28125 0.40625 0  0.3125 0.40625 0  0.34375 0.40625 0  0.375 0.40625 0  0.40625 0.40625 0  0.4375 0.40625 0  0.46875 0.40625 0  0.5 0.40625 0  0.53125 0.40625 0  0.5625 0.40625 0  0.59375 0.40625 0  0.625 0.40625 0  0.65625 0.40625 0  0.6875 0.40625 0  0.71875 0.40625 0  0.75 0.40625 0  0.78125 0.40625 0  0.8125 0.40625 0  0.84375 0.40625 0  0.875 0.40625 0  0.90625 0.40625 0  0.9375 0.40625 0  0.96875 0.40625 0  1 0.40625 0  0 0.4375 0  0.03125 0.4375 0  0.0625 0.4375 0  0.09375 0.4375 0  0.125 0.4375 0  0.15625 0.4375 0  0.1875 0.4375 0  0.21875 0.4375 0  0.25 0.4375 0  0.28125 0.4375 0  0.3125 0.4375 0  0.34375 0.4375 0  0.375 0.4375 0  0.40625 0.4375 0  0.4375 0.4375 0  0.46875 0.4375 0  0.5 0.4375 0  0.53125 0.4375 0  0.5625 0.4375 0  0.59375 0.4375 0  0.625 0.4375 0  0.65625 0.4375 0  0.6875 0.4375 0  0.71875 0.4375 0  0.75 0.4375 0  0.78125 0.4375 0  0.8125 0.4375 0  0.84375 0.4375 0  0.875 0.4375 0  0.90625 0.4375 0  0.9375 0.4375 0  0.96875 0.4375 0  1 0.4375 0  0 0.46875 0  0.03125 0.46875 0  0.0625 0.46875 0  0.09375 0.46875 0  0.125 0.46875 0  0.15625 0.46875 0  0.1875 0.46875 0  0.21875 0.46875 0  0.25 0.46875 0  0.28125 0.46875 0  0.3125 0.46875 0  0.34375 0.46875 0  0.375 0.46875 0  0.40625 0.46875 0  0.4375 0.46875 0  0.46875 0.46875 0  0.5 0.46875 0  0.53125 0.46875 0  0.5625 0.46875 0  0.59375 0.46875 0  0.625 0.46875 0  0.65625 0.46875 0  0.6875 0.46875 0  0.71875 0.46875 0  0.75 0.46875 0  0.78125 0.46875 0  0.8125 0.46875 0  0.84375 0.46875 0  0.875 0.46875 0  0.90625 0.46875 0  0.9375 0.46875 0  0.96875 0.46875 0  1 0.46875 0  0 0.5 0  0.03125 0.5 0  0.0625 0.5 0  0.09375 0.5 0  0.125 0.5 0  0.15625 0.5 0  0.1875 0.5 0  0.21875 0.5 0  0.25 0.5 0  0.28125 0.5 0  0.3125 0.5 0  0.34375 0.5 0  0.375 0.5 0  0.40625 0.5 0  0.4375 0.5 0  0.46875 0.5 0  0.5 0.5 0  0.53125 0.5 0  0.5625 0.5 0  0.59375 0.5 0  0.625 0.5 0  0.65625 0.5 0  0.6875 0.5 0  0.71875 0.5 0  0.75 0.5 0  0.78125 0.5 0  0.8125 0.5 0  0.84375 0.5 0  0.875 0.5 0  0.90625 0.5 0  0.9375 0.5 0  0.96875 0.5 0  1 0.5 0  0 0.53125 0  0.03125 0.53125 0  0.0625 0.53125 0  0.09375 0.53125 0  0.125 0.53125 0  0.15625 0.53125 0  0.1875 0.53125 0  0.21875 0.53125 0  0.25 0.53125 0  0.28125 0.53125 0  0.3125 0.53125 0  0.34375 0.53125 0  0.375 0.53125 0  0.40625 0.53125 0  0.4375 0.53125 0  0.46875 0.53125 0  0.5 0.53125 0  0.53125 0.53125 0  0.5625 0.53125 0  0.59375 0.53125 0  0.625 0.53125 0  0.65625 0.53125 0  0.6875 0.53125 0  0.71875 0.53125 0  0.75 0.53125 0  0.78125 0.531
[...]
<CellData  Scalars="f_40566"> 
<DataArray  type="Float64"  Name="f_40566"  format="ascii">1.3278371774606139e-07   2.0803687143116905e-07   2.2029672694944496e-07   2.4858311267761278e-07   3.6896579900576036e-07   3.5070970116453924e-07   5.7307759708929179e-07   5.1065905500853953e-07   8.2478972273332874e-07   7.2228695527087929e-07   1.1144293270273429e-06   9.7745997019994447e-07   1.4308656159792396e-06   1.2663716233340765e-06   1.7619378791290193e-06   1.5779192331004562e-06   2.0949229257635025e-06   1.9001303955878149e-06   2.4170240756177531e-06   2.2206229647126375e-06   2.7158629462471136e-06   2.5270808343103292e-06   2.9799551520390616e-06   2.8077272136739585e-06   3.1991516406206847e-06   3.0517771942168584e-06   3.3650287097931479e-06   3.2498522074410843e-06   3.4712117187777082e-06   3.3943404424655164e-06   3.5136200548906863e-06   3.4796893699706652e-06   3.4906239424503144e-06   3.5026191295124142e-06   3.4031070683178270e-06   3.4622485788859341e-06   3.2544326177513548e-06   3.3601291608614593e-06   3.0503140260625725e-06   3.2001852852453886e-06   2.7985954132783024e-06   2.9885635168343150e-06   2.5089501399045402e-06   2.7333963641320460e-06   2.1925090686661466e-06   2.4444897451681073e-06   1.8614328190786011e-06   2.1329461387902019e-06   1.5284444556638022e-06   1.8107378991912330e-06   1.2063405763918938e-06   1.4902471212629473e-06   9.0749961633694979e-07   1.1837897159209676e-06   6.4340635508013877e-07   9.0314192219881791e-07   4.2421126810898175e-07   6.5908727536483072e-07   2.5834230786706536e-07   4.6100107354867971e-07   1.5219901652240122e-07   3.1648532482811651e-07   1.0983316215588578e-07   2.3116608232687343e-07   2.8562731178892764e-07   4.0356806710485128e-07   3.6538959211006020e-07   4.3849208020037960e-07   5.0057977952920569e-07   5.2791107516861769e-07   6.8592203797807325e-07   6.6851680597835737e-07   9.1429880757890984e-07   8.5491350018930171e-07   1.1769343362577758e-06   1.0799367077064643e-06   1.4637357760403518e-06   1.3349382718155898e-06   1.7636814226015523e-06   1.6101184056902978e-06   2.0652443680204463e-06   1.8949020997092962e-06   2.3568355235966261e-06   2.1783454017359774e-06   2.6272490118888989e-06   2.4495559190957394e-06   2.8660928182301172e-06   2.6981113669655947e-06   3.0641881567447313e-06   2.9144600690902909e-06   3.2139222070435507e-06   3.0902880130715403e-06   3.3095406686443832e-06   3.2188383498783046e-06   3.3473688921212813e-06   3.2951710562691602e-06   3.3259530902863025e-06   3.3163527792956281e-06   3.2461162036260206e-06   3.2815695657970115e-06   3.1109262739173367e-06   3.1921581435945494e-06   2.9255785422245284e-06   3.0515545512723348e-06   2.6971958032909447e-06   2.8651620896166897e-06   2.4345546904012934e-06   2.6401436678846290e-06   2.1477484127301573e-06   2.3851465228513086e-06   1.8477989128206739e-06   2.1099698860527976e-06   1.5462333638457515e-06   1.8251883646083253e-06   1.2546413170197791e-06   1.5417454987430837e-06   9.8422960320628742e-07   1.2705331011401529e-06   7.4539228401791481e-07   1.0219725437606292e-06   5.4731247547318413e-07   8.0561421396756897e-07   3.9760971734698493e-07   6.2977158353616681e-07   3.0203453036314535e-07   5.0120260930905289e-07   2.6397038082007089e-07   4.2497446474842896e-07   4.9852659279517566e-07   6.5359413594299287e-07   5.6772427384313135e-07   6.8133038715531805e-07   6.8445406856232580e-07   7.5442100597222939e-07   8.4409720449414527e-07   8.7013671007101261e-07   1.0405248500877687e-06   1.0240427681444843e-06   1.2661889166845518e-06   1.2102238630169516e-06   1.5124175617430632e-06   1.4215245879764259e-06   1.7697484396770745e-06   1.6498244402494813e-06   2.0282924294578354e-06   1.8863498552900588e-06   2.2781137237777081e-06   2.1220112989436687e-06   2.5096116927967956e-06   2.3477525174342562e-06   2.7138898544108413e-06   2.5548985241522368e-06   2.8830977751695096e-06   2.7354889476609603e-06   3.0107327656515331e-06   2.8825839274566803e-06   3.0918897787025740e-06   2.9905307991014631e-06   3.1234499090172110e-06   3.0551813176084978e-06   3.1042002516344019e-06   3.0740510692482783e-06   3.0348805145538149e-06   3.0464149440241749e-06   2.9181545953770881e-06   2.9733349985226469e-06   2.7585082155903919e-06   2.8576196371594984e-06   2.5620765481938351e-06   2.7037156792539149e-06   2.3364084655461701e-06   2.5175374584073722e-06   2.0901764717998657e-06   2.3062395202815773e-06   1.8328434746808843e-06   2.0779416524900259e-06   1.5742992148165650e-06   1.8414168137613096e-06   1.3244803402680341e-06   1.6057539625073598e-06   1.0929887235312316e-06   1.3800087755748917e-06   8.8872253636647248e-07   1.1728557967103991e-06   7.1953341065233694e-07   9.9225571025097763e-07   5.9191873649538202e-07   8.4515141562612360e-07   5.1075685428611198e-07   7.3719640287746026e-07   4.7899611209648147e-07   6.7270087001424383e-07   7.6320477938929870e-07   9.4850831627345802e-07   8.1940218838574276e-07   9.6772115897393453e-07   9.1338597616132596e-07   1.0214427058109624e-06   1.0413601192111208e-06   1.1076277169430108e-06   1.1984139959759699e-06   1.2229759345126395e-06   1.3785119777043538e-06   1.3630540911467484e-06   1.5747331774265401e-06   1.5224787762147647e-06   1.7795370353709431e-06   1.6951231290125552e-06   1.9850530844402495e-06   1.8743523690467451e-06   2.1833834233797039e-06   2.0532787592782440e-06   2.3669062515543946e-06   2.2250262738098925e-06   2.5285687907856877e-06   2.3829948137218559e-06   2.6621583352061223e-06   2.5211138228887483e-06   2.7625410130645217e-06   2.6340755588299093e-06   2.8258590861444258e-06   2.7175390537097055e-06   2.8496792060099596e-06   2.7682969262710742e-06   2.8330859310336352e-06   2.7843986329013778e-06   2.7767169116355060e-06   2.7652254200855708e-06   2.6827383928858886e-06   2.7115140967682954e-06   2.5547619772095599e-06   2.6253287120757515e-06   2.3977058475463024e-06   2.5099812260689311e-06   2.2176057858869010e-06   2.3699042217991255e-06   2.0213832514415885e-06   2.2104805509614898e-06   1.8165794312648983e-06   2.0378364630291096e-06   1.6110654766751783e-06   1.8586061773683797e-06   1.4127400291075284e-06   1.6796769700759230e-06   1.2292255528692989e-06   1.5079246276592433e-06   1.0675748449302351e-06   1.3499495423623629e-06   9.3399838583269717e-07   1.2118237015273185e-06   8.3362194644198819e-07   1.0988584007635683e-06   7.7028968259248399e-07   1.0153898539741819e-06   7.4633149099271726e-07   9.6483999126639056e-07   1.0694877378510536e-06   1.2769786749966136e-06   1.1107523446118002e-06   1.2866648096122907e-06   1.1785901350491583e-06   1.3187235171559659e-06   1.2701497770282125e-06   1.3718723295362886e-06   1.3819225094470238e-06   1.4440784102159944e-06   1.5096126376687131e-06   1.5325660710598982e-06   1.6483131342158519e-06   1.6339345861592619e-06   1.7926938646803227e-06   1.7442882509103301e-06   1.9372063913816301e-06   1.8593861147555415e-06   2.0762971783828437e-06   1.9748049625124851e-06   2.2046210122639418e-06   2.0861092928387372e-06   2.3172464250734532e-06   2.1890217615815366e-06   2.4098452190081091e-06   2.2795875443776139e-06   2.4788588070080598e-06   2.3543263051170516e-06   2.5216349762528715e-06   2.4103659315735370e-06   2.5365298191341057e-06   2.4455528990484637e-06   2.5229709152139981e-06   2.4585350205137647e-06   2.4814793369736388e-06   2.4488134026363689e-06   2.4136496345190486e-06   2.4167616105148145e-06   2.3220885691469781e-06   2.3636113042948010e-06   2.2103149506112317e-06   2.2914048997959512e-06   2.0826244267909594e-06   2.2029170735305146e-06   1.9439244189176200e-06   2.1015481317168087e-06   1.7995455370520354e-06   1.9911933478767547e-06   1.6550367008787147e-06   1.8760933039999079e-06   1.5159517890221140e-06   1.7606710110573775e-06   1.3876359189596355e-06   1.6493621036552398e-06   1.2750194415223713e-06   1.5464446588517475e-06   1.1824276454072256e-06   1.4558750813568978e-06   1.1134139822269232e-06   1.3811364069711903e-06   1.0706278350090317e-06   1.3250917695687148e-06   1.0556674771153826e-06   1.2901720669275632e-06   1.4056040217331981e-06   1.6263828879866863e-06   1.4305762671898901e-06   1.6259044728149390e-06   1.4698724882502760e-06   1.6348399470556845e-06   1.5216726072400750e-06   1.6527163778597574e-06   1.5839977829814473e-06   1.6788534050352901e-06   1.6544526205562229e-06   1.7122451780523808e-06   1.7303296148995554e-06   1.7516081987506069e-06   1.8087128674846449e-06   1.7954296131263235e-06   1.8865901704689225e-06   1.8420252897514673e-06   1.9609687515531538e-06   1.8896045185029516e-06   2.0289902772938736e-06   1.9363388222497710e-06   2.0880406975591098e-06   1.9804322201953577e-06   2.1358507071069161e-06   2.0201902397920542e-06   2.1705829610614306e-06   2.0540850258803647e-06   2.1909026911470150e-06   2.0808140461511653e-06   2.1960290083726229e-06   2.0993501377245872e-06   2.1857649205499096e-06   2.1089809719738445e-06   2.1605049112421642e-06   2.1093364210992148e-06   2.1212197890356158e-06   2.1004027749143928e-06   2.0694193891204502e-06   2.0825232619095160e-06   2.0070945595123724e-06   2.0563848556084133e-06   1.9366406586236027e-06   2.0229918754852019e-06   1.8607654980132415e-06   1.9836274011525876e-06   1.7823852558006131e-06   1.9398039898618870e-06   1.7045123385684913e-06   1.8932056020376815e-06   1.6301394676049842e-06   1.8456229791896081e-06   1.5621244139161834e-06   1.7988849618166850e-06   1.5030798547254304e-06   1.7547883551540689e-06   1.4552729290615916e-06   1.7150289042784258e-06   1.4205389570442369e-06   1.6811364052358835e-06   1.4002163480510561e-06   1.6544019757401239e-06   1.3951079142776090e-06   1.6361960806942406e-06   1.7586361443308845e-06   1.9832939366725291e-06   1.7665834526352538e-06   1.9724031684276500e-06   1.7760389347635481e-06   1.9576438859990368e-06   1.7862624347817045e-06   1.9393674530941443e-06   1.7968741460544347e-06   1.9182788486748551e-06   1.8074659932408712e-06   1.8951864851700523e-06   1.8176310545512518e-06   1.8709773997314371e-06   1.8269787238468229e-06   1.8465817410120571e-06   1.8351497938884869e-06   1.8229369121898320e-06   1.8418302707796898e-06   1.8009515017202329e-06   1.8467634384981504e-06   1.7814703520715443e-06   1.8497597223656940e-06   1.7652420871241445e-06   1.8507039755944850e-06   1.7528903384401845e-06   1.8495599085557740e-06   1.7448897739131704e-06   1.8463714895377080e-06   1.7415478499239586e-06   1.8412612622873319e-06   1.7429929887918715e-06   1.8344256444180540e-06   1.7491696364580230e-06   1.8261273868797111e-06   1.7598403909044332e-06   1.8166854836790160e-06   1.7745951201600969e-06   1.8064629185323614e-06   1.7928667204507204e-06   1.7958527173038694e-06   1.8139529104689731e-06   1.7852628384269027e-06   1.8370432267808903e-06   1.7751004755100262e-06   1.8612501867227190e-06   1.7657563653588554e-06   1.8856434262807806e-06   1.7575896917654127e-06   1.9092855059666648e-06   1.7509141568053110e-06   1.9312680092406793e-06   1.7459857735894012e-06   1.9507465327363372e-06   1.7429929496400590e-06   1.9669731836748970e-06   1.7420495694033678e-06   1.9793252518376047e-06   1.7431920114793535e-06   1.9873296531100858e-06   1.7463850359096515e-06   1.9906661099428985e-06   1.7516071702204813e-06   1.9896146258857495e-06   2.1150167597663725e-06   2.3339962103755147e-06   2.1058614325610241e-06   2.3128451277000300e-06   2.0853237502820765e-06   2.2747300921019877e-06   2.0537511413559324e-06   2.2208097536388633e-06   2.0123707993366702e-06   2.1531538417628698e-06   1.9627725346070992e-06   2.0743597137912595e-06   1.9068625731669051e-06   1.9874548901377560e-06   1.8467895836908630e-06   1.8957788322404208e-06   1.7848621804247420e-06   1.8028544627367845e-06   1.7234602306063422e-06   1.7122527262976319e-06   1.6649434047690651e-06   1.6274553376056596e-06   1.6115604966421039e-06   1.5517209709542647e-06   1.5653630038526251e-06   1.4879600256775793e-06   1.5281262924579506e-06   1.4386227764459844e-06   1.5012813749307699e-06   1.4056052055361950e-06   1.4858599227264393e-06   1.3901761358666331e-06   1.4824546258122544e-06   1.3929284655054636e-06   1.4911964216478034e-06   1.4137563783910661e-06   1.5117494676290150e-06   1.4518594079156852e-06   1.5433240486520459e-06   1.5057731983791146e-06   1.5847069213906178e-06   1.5734257837738903e-06   1.6343079256709361e-06   1.6522172232330746e-06   1.6902210668935030e-06   1.7391195353263305e-06   1.7502977168011286e-06   1.8307930929444862e-06   1.8122291167258447e-06   1.9237150057713031e-06   1.8736350201803152e-06   2.0143145509027461e-06   1.9321551017179773e-06   2.0991104308584953e-06   1.9855397083084720e-06   2.1748445588165190e-06   2.0317367411533898e-06   2.2386071995758295e-06   2.0689723632082187e-06   2.2879495892342753e-06   2.0958294406793352e-06   2.3209620874337250e-06   2.1114652955646491e-06   2.3368459431549584e-06   2.4610499892970017e-06   2.6650126243351035e-06   2.4353718948203094e-06   2.6341474205317880e-06   2.3858413739126955e-06   2.5739130871408084e-06   2.3138593104019616e-06   2.4862275852281793e-06   2.2222063019418616e-06   2.3744522842899394e-06   2.1144038784252227e-06   2.2428793654677377e-06   1.9945950566256992e-06   2.0965645212538781e-06   1.8673841519702454e-06   1.9411302656044181e-06   1.7376598872691220e-06   1.7825496800273936e-06   1.6104075502699993e-06   1.6269168158260889e-06   1.4905174252463737e-06   1.4802124782966758e-06   1.3825968666025538e-06   1.3480743747643734e-06   1.2907932425944918e-06   1.2355804533176738e-06   1.2186345562818943e-06   1.1470537550146738e-06   1.1688938694563147e-06   1.0858962773874852e-06   1.1434827394490794e-06   1.0544582333767980e-06   1.1433777633047314e-06   1.0539477302562471e-06   1.1685830512160490e-06   1.0843843401434506e-06   1.2181300701116526e-06   1.1445983472210049e-06   1.2901148618055831e-06   1.2322757016479299e-06   1.3817712033526667e-06   1.3440469538735759e-06   1.4895768955980712e-06   1.4756167530029542e-06   1.6093890927370169e-06   1.6219289337434405e-06   1.7366034710741590e-06   1.7773608476968683e-06   1.8663311231738367e-06   1.9359394684268322e-06   1.9935863916632282e-06   2.0915709586407456e-06   2.1134784532379924e-06   2.2382748656490462e-06   2.2213993560503487e-06   2.3704139362182155e-06   2.3132015541964363e-06   2.4829107224453709e-06   2.3853597103365671e-06   2.5714437588572251e-06   2.4351201917128344e-06   2.6325969607589487e-06   2.4608533500795250e-06   2.6645460718360779e-06   2.7834377026099561e-06   2.9636225542386708e-06   2.7424518286401834e-06   2.9239626613122331e-06   2.6660431033704877e-06   2.8436954393792785e-06   2.5565911694485364e-06   2.7254210621977345e-06   2.4183168036062268e-06   2.5736697838362970e-06   2.2565329085427061e-06   2.3942693246694366e-06   2.0774569843101418e-06   2.1941132799560345e-06   1.8879709855764970e-06   1.9808932198400102e-06   1.6953568690534427e-06   1.7628028723878146e-06   1.5070167733886785e-06   1.5482231897810633e-06   1.3301885736930626e-06   1.3454002499725973e-06   1.1716677409733688e-06   1.1621283508570699e-06   1.0375461993206435e-06   1.0054504711655187e-06   9.3297821908831110e-07   8.8138760683721952e-07   8.6198234377965250e-07   7.9470738301252040e-07   8.2728696259374250e-07   7.4874083329491604e-07   8.3022546264648206e-07   7.4525438746114529e-07   8.7068498924349630e-07   7.8438198750136044e-07   9.4711078218754796e-07   8.6461994139014694e-07   1.0565659201273845e-06   9.8288471311825434e-07   1.1948441755411685e-06   1.1346314288914446e-06   1.3566316419912246e-06   1.3140285459301476e-06   1.5357109217453048e-06   1.5141819714135958e-06   1.7252000280989791e-06   1.7274000176105713e-06   1.9178168263817373e-06   1.9454890080440112e-06   2.1061588620148090e-06   2.1600681693863613e-06   2.2829878418493981e-06   2.3628917018595861e-06   2.4415078878415731e-06   2.5461656534107293e-06   2.5756271732433735e-06   2.7028474416001176e-06   2.6801951086496737e-06   2.8269177598024601e-06   2.7512184249626461e-06   2.9135948411706824e-06   2.7863446682113946e-06   2.9601216715513178e-06   3.0697905303223303e-06   3.2183506931247224e-06   3.0153002113708668e-06   3.1711534833068857e-06   2.9151609256461312e-06   3.0737095818551952e-06   2.7726186934107685e-06   2.9291980957722215e-06   2.5931659089416046e-06   2.7431504996844826e-06   2.3836976909966952e-06   2.5227117467328470e-06   2.1522640111769572e-06   2.2763524222666942e-06   1.9077589294874058e-06   2.0135396373911492e-06   1.6595787875936299e-06   1.7443729162236669e-06   1.4172611237760411e-06   1.4791960241338458e-06   1.1901181629504007e-06   1.2281994427420005e-06   9.8687896063168831e-07   1.0010287424857443e-06   8.1535395472718456e-07   8.0641389953402837e-07   6.8213481793962666e-07   6.5183380095749446e-07   5.9234114617436268e-07   5.4322883033183026e-07   5.4942371770144433e-07   4.8477257866784265e-07   5.5503188332715167e-07   4.7871145376347591e-07   6.0895018299591956e-07   5.2527835198238998e-07   7.0910662373504673e-07   6.2268371039707885e-07   8.5165229989701849e-07   7.6718428353967570e-07   1.0311092950965515e-06   9.5322700194610059e-07   1.2405811816037632e-06   1.1736623839904321e-06   1.4720180282588891e-06   1.4200192990219803e-06   1.7165257348506502e-06   1.6828305212358153e-06   1.9647078098513438e-06   1.9519965608037660e-06   2.2070264646017738e-06   2.2171737872044204e-06   2.4341691600847400e-06   2.4681719273869249e-06   2.6374065678398824e-06   2.6953456714018524e-06   2.8089285417236097e-06   2.8899653684808178e-06   2.9421480360987123e-06   3.0445539406679709e-06   3.0319766350102881e-06   3.1531571818782840e-06   3.0754308460498819e-06   3.2122139652847649e-06   3.3091039633811609e-06   3.4194080482082755e-06   3.2434315387191632e-06   3.3662205302878525e-06   3.1236213506696369e-06   3.2551162161633718e-06   2.9536400742578274e-06   3.0897276381345062e-06   2.7400342827630133e-06   2.8763813629936747e-06   2.4910113633097275e-06   2.6232706474810782e-06   2.2161413400616948e-06   2.3401215433636763e-06   1.9259875268574363e-06   2.0378149478350020e-06   1.6317005476320451e-06   1.7279680890650475e-06   1.3445898255303583e-06   1.4224880280751584e-06   1.0756889767921714e-06   1.1331140599529778e-06   8.3533180213378687e-07   8.7096656740868383e-07   6.3275516983851202e-07   6.4611966106334219e-07   4.7574405213731270e-07   4.6721402936320303e-07   3.7033235629908525e-07   3.4112487603213646e-07   3.2057104729731593e-07   2.7269770607081554e-07   3.2837247264041926e-07   2.6456211401061907e-07   3.9343687136777057e-07   3.1703073059263806e-07   5.1326389085492974e-07   4.2808721142477083e-07   6.8324866834458795e-07   5.9346372921752309e-07   8.9685878456850716e-07   8.0680499141985819e-07   1.1458852894152700e-06   1.0599124795711368e-06   1.4207581538387332e-06   1.3430595233568992e-06   1.7109140274163497e-06   1.6453650996556146e-06   2.0052021721337632e-06   1.9552119897918904e-06   2.2923129770967244e-06   2.2606932237784469e-06   2.5612125953807809e-06   2.5500696554171363e-06   2.8015670498969166e-06   2.8122210950688074e-06   3.0041399133764655e-06   3.0370737048290217e-06   3.1611517106643663e-06   3.2159887126914363e-06   3.2666054255530086e-06   3.3420777797873181e-06   3.3170024589627961e-06   3.4111352378524676e-06   3.4921812382385271e-06   3.5590681318820422e-06   3.4180787849378116e-06   3.5016675082740255e-06   3.2834133310594426e-06   3.3809439933281739e-06   3.0926987608954500e-06   3.2008406207175948e-06   2.8532778651856069e-06   2.9682423739788360e-06   2.5743499254085090e-06   2.6920815990046547e-06   2.2666341929142230e-06   2.3829700389132140e-06   1.9419562418077228e-06   2.0527862859966166e-06   1.6127934623488749e-06   1.7142188527399686e-06   1.2917955554985063e-06   1.3802785007352130e-06   9.9129841744895882e-07   1.0637982288207231e-06   7.2285008450644797e-07   7.7694009656520370e-07   4.9676695454311110e-07   5.3072783266143777e-07   3.2173733878695915e-07   3.3462319024028566e-07   2.04487579