<?xml version="1.0"?>
<VTKFile type="UnstructuredGrid"  version="0.1"  >
<UnstructuredGrid>
<Piece  NumberOfPoints="25" NumberOfCells="32">
<Points>
<DataArray  type="Float64"  NumberOfComponents="3"  format="ascii">0 0 0  0.25 0 0  0.5 0 0  0.75 0 0  1 0 0  0 0.25 0  0.25 0.25 0  0.5 0.25 0  0.75 0.25 0  1 0.25 0  0 0.5 0  0.25 0.5 0  0.5 0.5 0  0.75 0.5 0  1 0.5 0  0 0.75 0  0.25 0.75 0  0.5 0.75 0  0.75 0.75 0  1 0.75 0  0 1 0  0.25 1 0  0.5 1 0  0.75 1 0  1 1 0  </DataArray>
</Points>
<Cells>
<DataArray  type="UInt32"  Name="connectivity"  format="ascii">0 1 6  0 5 6  1 2 7  1 6 7  2 3 8  2 7 8  3 4 9  3 8 9  5 6 11  5 10 11  6 7 12  6 11 12  7 8 13  7 12 13  8 9 14  8 13 14  10 11 16  10 15 16  11 12 17  11 16 17  12 13 18  12 17 18  13 14 19  13 18 19  15 16 21  15 20 21  16 17 22  16 21 22  17 18 23  17 22 23  18 19 24  18 23 24  </DataArray>
<DataArray  type="UInt32"  Name="offsets"  format="ascii">3 6 9 12 15 18 21 24 27 30 33 36 39 42 45 48 51 54 57 60 63 66 69 72 75 78 81 84 87 90 93 96 </DataArray>
<DataArray  type="UInt8"  Name="types"  format="ascii">5 5 5 5 5 5 5 5 5 5 5 5 5 5 5 5 5 5 5 5 5 5 5 5 5 5 5 5 5 5 5 5 </DataArray>
</Cells>
<CellData  Scalars="f_36167"> 
<DataArray  type="Float64"  Name="f_36167"  format="ascii">6.3965773031416148e-03   5.7626122517905384e-03   1.1350520374785720e-03   2.9209976135535182e-03   5.7918808974704982e-03   5.1785485524539392e-03   1.1242553149575915e-02   8.5567095324584029e-03   2.2804733168903975e-03   6.1848536159721961e-04   6.5175837417944830e-03   6.1436933264258356e-03   7.4775398684238234e-03   8.4481128819117943e-03   3.0693534677617021e-03   3.1448994340418173e-03   5.1875247748829423e-03   7.1133401089452106e-03   7.9711952084792863e-03   7.3595611455362520e-03   5.0546340510034945e-03   4.5408193078217470e-03   2.1547894807147534e-03   4.5507907819019606e-03   9.9656481992465903e-03   1.2435242689536510e-02   2.8239794154383251e-03   4.0673238238069214e-03   3.7155410282827045e-03   1.1323223232877610e-03   1.0860483283230703e-02   1.0105050548381940e-02   </DataArray> 
</CellData> 
</Piece>
</UnstructuredGrid>
</VTKFile>