<?xml version="1.0"?>
<VTKFile type="UnstructuredGrid"  version="0.1"  >
<UnstructuredGrid>
<Piece  NumberOfPoints="1089" NumberOfCells="2048">
<Points>
<DataArray  type="Float64"  NumberOfComponents="3"  format="ascii">0 0 0  0.03125 0 0  0.0625 0 0  0.09375 0 0  0.125 0 0  0.15625 0 0  0.1875 0 0  0.21875 0 0  0.25 0 0  0.28125 0 0  0.3125 0 0  0.34375 0 0  0.375 0 0  0.40625 0 0  0.4375 0 0  0.46875 0 0  0.5 0 0  0.53125 0 0  0.5625 0 0  0.59375 0 0  0.625 0 0  0.65625 0 0  0.6875 0 0  0.71875 0 0  0.75 0 0  0.78125 0 0  0.8125 0 0  0.84375 0 0  0.875 0 0  0.90625 0 0  0.9375 0 0  0.96875 0 0  1 0 0  0 0.03125 0  0.03125 0.03125 0  0.0625 0.03125 0  0.09375 0.03125 0  0.125 0.03125 0  0.15625 0.03125 0  0.1875 0.03125 0  0.21875 0.03125 0  0.25 0.03125 0  0.28125 0.03125 0  0.3125 0.03125 0  0.34375 0.03125 0  0.375 0.03125 0  0.40625 0.03125 0  0.4375 0.03125 0  0.46875 0.03125 0  0.5 0.03125 0  0.53125 0.03125 0  0.5625 0.03125 0  0.59375 0.03125 0  0.625 0.03125 0  0.65625 0.03125 0  0.6875 0.03125 0  0.71875 0.03125 0  0.75 0.03125 0  0.78125 0.03125 0  0.8125 0.03125 0  0.84375 0.03125 0  0.875 0.03125 0  0.90625 0.03125 0  0.9375 0.03125 0  0.96875 0.03125 0  1 0.03125 0  0 0.0625 0  0.03125 0.0625 0  0.0625 0.0625 0  0.09375 0.0625 0  0.125 0.0625 0  0.15625 0.0625 0  0.1875 0.0625 0  0.21875 0.0625 0  0.25 0.0625 0  0.28125 0.0625 0  0.3125 0.0625 0  0.34375 0.0625 0  0.375 0.0625 0  0.40625 0.0625 0  0.4375 0.0625 0  0.46875 0.0625 0  0.5 0.0625 0  0.53125 0.0625 0  0.5625 0.0625 0  0.59375 0.0625 0  0.625 0.0625 0  0.65625 0.0625 0  0.6875 0.0625 0  0.71875 0.0625 0  0.75 0.0625 0  0.78125 0.0625 0  0.8125 0.0625 0  0.84375 0.0625 0  0.875 0.0625 0  0.90625 0.0625 0  0.9375 0.0625 0  0.96875 0.0625 0  1 0.0625 0  0 0.09375 0  0.03125 0.09375 0  0.0625 0.09375 0  0.09375 0.09375 0  0.125 0.09375 0  0.15625 0.09375 0  0.1875 0.09375 0  0.21875 0.09375 0  0.25 0.09375 0  0.28125 0.09375 0  0.3125 0.09375 0  0.34375 0.09375 0  0.375 0.09375 0  0.40625 0.09375 0  0.4375 0.09375 0  0.46875 0.09375 0  0.5 0.09375 0  0.53125 0.09375 0  0.5625 0.09375 0  0.59375 0.09375 0  0.625 0.09375 0  0.65625 0.09375 0  0.6875 0.09375 0  0.71875 0.09375 0  0.75 0.09375 0  0.78125 0.09375 0  0.8125 0.09375 0  0.84375 0.09375 0  0.875 0.09375 0  0.90625 0.09375 0  0.9375 0.09375 0  0.96875 0.09375 0  1 0.09375 0  0 0.125 0  0.03125 0.125 0  0.0625 0.125 0  0.09375 0.125 0  0.125 0.125 0  0.15625 0.125 0  0.1875 0.125 0  0.21875 0.125 0  0.25 0.125 0  0.28125 0.125 0  0.3125 0.125 0  0.34375 0.125 0  0.375 0.125 0  0.40625 0.125 0  0.4375 0.125 0  0.46875 0.125 0  0.5 0.125 0  0.53125 0.125 0  0.5625 0.125 0  0.59375 0.125 0  0.625 0.125 0  0.65625 0.125 0  0.6875 0.125 0  0.71875 0.125 0  0.75 0.125 0  0.78125 0.125 0  0.8125 0.125 0  0.84375 0.125 0  0.875 0.125 0  0.90625 0.125 0  0.9375 0.125 0  0.96875 0.125 0  1 0.125 0  0 0.15625 0  0.03125 0.15625 0  0.0625 0.15625 0  0.09375 0.15625 0  0.125 0.15625 0  0.15625 0.15625 0  0.1875 0.15625 0  0.21875 0.15625 0  0.25 0.15625 0  0.28125 0.15625 0  0.3125 0.15625 0  0.34375 0.15625 0  0.375 0.15625 0  0.40625 0.15625 0  0.4375 0.15625 0  0.46875 0.15625 0  0.5 0.15625 0  0.53125 0.15625 0  0.5625 0.15625 0  0.59375 0.15625 0  0.625 0.15625 0  0.65625 0.15625 0  0.6875 0.15625 0  0.71875 0.15625 0  0.75 0.15625 0  0.78125 0.15625 0  0.8125 0.15625 0  0.84375 0.15625 0  0.875 0.15625 0  0.90625 0.15625 0  0.9375 0.15625 0  0.96875 0.15625 0  1 0.15625 0  0 0.1875 0  0.03125 0.1875 0  0.0625 0.1875 0  0.09375 0.1875 0  0.125 0.1875 0  0.15625 0.1875 0  0.1875 0.1875 0  0.21875 0.1875 0  0.25 0.1875 0  0.28125 0.1875 0  0.3125 0.1875 0  0.34375 0.1875 0  0.375 0.1875 0  0.40625 0.1875 0  0.4375 0.1875 0  0.46875 0.1875 0  0.5 0.1875 0  0.53125 0.1875 0  0.5625 0.1875 0  0.59375 0.1875 0  0.625 0.1875 0  0.65625 0.1875 0  0.6875 0.1875 0  0.71875 0.1875 0  0.75 0.1875 0  0.78125 0.1875 0  0.8125 0.1875 0  0.84375 0.1875 0  0.875 0.1875 0  0.90625 0.1875 0  0.9375 0.1875 0  0.96875 0.1875 0  1 0.1875 0  0 0.21875 0  0.03125 0.21875 0  0.0625 0.21875 0  0.09375 0.21875 0  0.125 0.21875 0  0.15625 0.21875 0  0.1875 0.21875 0  0.21875 0.21875 0  0.25 0.21875 0  0.28125 0.21875 0  0.3125 0.21875 0  0.34375 0.21875 0  0.375 0.21875 0  0.40625 0.21875 0  0.4375 0.21875 0  0.46875 0.21875 0  0.5 0.21875 0  0.53125 0.21875 0  0.5625 0.21875 0  0.59375 0.21875 0  0.625 0.21875 0  0.65625 0.21875 0  0.6875 0.21875 0  0.71875 0.21875 0  0.75 0.21875 0  0.78125 0.21875 0  0.8125 0.21875 0  0.84375 0.21875 0  0.875 0.21875 0  0.90625 0.21875 0  0.9375 0.21875 0  0.96875 0.21875 0  1 0.21875 0  0 0.25 0  0.03125 0.25 0  0.0625 0.25 0  0.09375 0.25 0  0.125 0.25 0  0.15625 0.25 0  0.1875 0.25 0  0.21875 0.25 0  0.25 0.25 0  0.28125 0.25 0  0.3125 0.25 0  0.34375 0.25 0  0.375 0.25 0  0.40625 0.25 0  0.4375 0.25 0  0.46875 0.25 0  0.5 0.25 0  0.53125 0.25 0  0.5625 0.25 0  0.59375 0.25 0  0.625 0.25 0  0.65625 0.25 0  0.6875 0.25 0  0.71875 0.25 0  0.75 0.25 0  0.78125 0.25 0  0.8125 0.25 0  0.84375 0.25 0  0.875 0.25 0  0.90625 0.25 0  0.9375 0.25 0  0.96875 0.25 0  1 0.25 0  0 0.28125 0  0.03125 0.28125 0  0.0625 0.28125 0  0.09375 0.28125 0  0.125 0.28125 0  0.15625 0.28125 0  0.1875 0.28125 0  0.21875 0.28125 0  0.25 0.28125 0  0.28125 0.28125 0  0.3125 0.28125 0  0.34375 0.28125 0  0.375 0.28125 0  0.40625 0.28125 0  0.4375 0.28125 0  0.46875 0.28125 0  0.5 0.28125 0  0.53125 0.28125 0  0.5625 0.28125 0  0.59375 0.28125 0  0.625 0.28125 0  0.65625 0.28125 0  0.6875 0.28125 0  0.71875 0.28125 0  0.75 0.28125 0  0.78125 0.28125 0  0.8125 0.28125 0  0.84375 0.28125 0  0.875 0.28125 0  0.90625 0.28125 0  0.9375 0.28125 0  0.96875 0.28125 0  1 0.28125 0  0 0.3125 0  0.03125 0.3125 0  0.0625 0.3125 0  0.09375 0.3125 0  0.125 0.3125 0  0.15625 0.3125 0  0.1875 0.3125 0  0.21875 0.3125 0  0.25 0.3125 0  0.28125 0.3125 0  0.3125 0.3125 0  0.34375 0.3125 0  0.375 0.3125 0  0.40625 0.3125 0  0.4375 0.3125 0  0.46875 0.3125 0  0.5 0.3125 0  0.53125 0.3125 0  0.5625 0.3125 0  0.59375 0.3125 0  0.625 0.3125 0  0.65625 0.3125 0  0.6875 0.3125 0  0.71875 0.3125 0  0.75 0.3125 0  0.78125 0.3125 0  0.8125 0.3125 0  0.84375 0.3125 0  0.875 0.3125 0  0.90625 0.3125 0  0.9375 0.3125 0  0.96875 0.3125 0  1 0.3125 0  0 0.34375 0  0.03125 0.34375 0  0.0625 0.34375 0  0.09375 0.34375 0  0.125 0.34375 0  0.15625 0.34375 0  0.1875 0.34375 0  0.21875 0.34375 0  0.25 0.34375 0  0.28125 0.34375 0  0.3125 0.34375 0  0.34375 0.34375 0  0.375 0.34375 0  0.40625 0.34375 0  0.4375 0.34375 0  0.46875 0.34375 0  0.5 0.34375 0  0.53125 0.34375 0  0.5625 0.34375 0  0.59375 0.34375 0  0.625 0.34375 0  0.65625 0.34375 0  0.6875 0.34375 0  0.71875 0.34375 0  0.75 0.34375 0  0.78125 0.34375 0  0.8125 0.34375 0  0.84375 0.34375 0  0.875 0.34375 0  0.90625 0.34375 0  0.9375 0.34375 0  0.96875 0.34375 0  1 0.34375 0  0 0.375 0  0.03125 0.375 0  0.0625 0.375 0  0.09375 0.375 0  0.125 0.375 0  0.15625 0.375 0  0.1875 0.375 0  0.21875 0.375 0  0.25 0.375 0  0.28125 0.375 0  0.3125 0.375 0  0.34375 0.375 0  0.375 0.375 0  0.40625 0.375 0  0.4375 0.375 0  0.46875 0.375 0  0.5 0.375 0  0.53125 0.375 0  0.5625 0.375 0  0.59375 0.375 0  0.625 0.375 0  0.65625 0.375 0  0.6875 0.375 0  0.71875 0.375 0  0.75 0.375 0  0.78125 0.375 0  0.8125 0.375 0  0.84375 0.375 0  0.875 0.375 0  0.90625 0.375 0  0.9375 0.375 0  0.96875 0.375 0  1 0.375 0  0 0.40625 0  0.03125 0.40625 0  0.0625 0.40625 0  0.09375 0.40625 0  0.125 0.40625 0  0.15625 0.40625 0  0.1875 0.40625 0  0.21875 0.40625 0  0.25 0.40625 0  0.28125 0.40625 0  0.3125 0.40625 0  0.34375 0.40625 0  0.375 0.40625 0  0.40625 0.40625 0  0.4375 0.40625 0  0.46875 0.40625 0  0.5 0.40625 0  0.53125 0.40625 0  0.5625 0.40625 0  0.59375 0.40625 0  0.625 0.40625 0  0.65625 0.40625 0  0.6875 0.40625 0  0.71875 0.40625 0  0.75 0.40625 0  0.78125 0.40625 0  0.8125 0.40625 0  0.84375 0.40625 0  0.875 0.40625 0  0.90625 0.40625 0  0.9375 0.40625 0  0.96875 0.40625 0  1 0.40625 0  0 0.4375 0  0.03125 0.4375 0  0.0625 0.4375 0  0.09375 0.4375 0  0.125 0.4375 0  0.15625 0.4375 0  0.1875 0.4375 0  0.21875 0.4375 0  0.25 0.4375 0  0.28125 0.4375 0  0.3125 0.4375 0  0.34375 0.4375 0  0.375 0.4375 0  0.40625 0.4375 0  0.4375 0.4375 0  0.46875 0.4375 0  0.5 0.4375 0  0.53125 0.4375 0  0.5625 0.4375 0  0.59375 0.4375 0  0.625 0.4375 0  0.65625 0.4375 0  0.6875 0.4375 0  0.71875 0.4375 0  0.75 0.4375 0  0.78125 0.4375 0  0.8125 0.4375 0  0.84375 0.4375 0  0.875 0.4375 0  0.90625 0.4375 0  0.9375 0.4375 0  0.96875 0.4375 0  1 0.4375 0  0 0.46875 0  0.03125 0.46875 0  0.0625 0.46875 0  0.09375 0.46875 0  0.125 0.46875 0  0.15625 0.46875 0  0.1875 0.46875 0  0.21875 0.46875 0  0.25 0.46875 0  0.28125 0.46875 0  0.3125 0.46875 0  0.34375 0.46875 0  0.375 0.46875 0  0.40625 0.46875 0  0.4375 0.46875 0  0.46875 0.46875 0  0.5 0.46875 0  0.53125 0.46875 0  0.5625 0.46875 0  0.59375 0.46875 0  0.625 0.46875 0  0.65625 0.46875 0  0.6875 0.46875 0  0.71875 0.46875 0  0.75 0.46875 0  0.78125 0.46875 0  0.8125 0.46875 0  0.84375 0.46875 0  0.875 0.46875 0  0.90625 0.46875 0  0.9375 0.46875 0  0.96875 0.46875 0  1 0.46875 0  0 0.5 0  0.03125 0.5 0  0.0625 0.5 0  0.09375 0.5 0  0.125 0.5 0  0.15625 0.5 0  0.1875 0.5 0  0.21875 0.5 0  0.25 0.5 0  0.28125 0.5 0  0.3125 0.5 0  0.34375 0.5 0  0.375 0.5 0  0.40625 0.5 0  0.4375 0.5 0  0.46875 0.5 0  0.5 0.5 0  0.53125 0.5 0  0.5625 0.5 0  0.59375 0.5 0  0.625 0.5 0  0.65625 0.5 0  0.6875 0.5 0  0.71875 0.5 0  0.75 0.5 0  0.78125 0.5 0  0.8125 0.5 0  0.84375 0.5 0  0.875 0.5 0  0.90625 0.5 0  0.9375 0.5 0  0.96875 0.5 0  1 0.5 0  0 0.53125 0  0.03125 0.53125 0  0.0625 0.53125 0  0.09375 0.53125 0  0.125 0.53125 0  0.15625 0.53125 0  0.1875 0.53125 0  0.21875 0.53125 0  0.25 0.53125 0  0.28125 0.53125 0  0.3125 0.53125 0  0.34375 0.53125 0  0.375 0.53125 0  0.40625 0.53125 0  0.4375 0.53125 0  0.46875 0.53125 0  0.5 0.53125 0  0.53125 0.53125 0  0.5625 0.53125 0  0.59375 0.53125 0  0.625 0.53125 0  0.65625 0.53125 0  0.6875 0.53125 0  0.71875 0.53125 0  0.75 0.53125 0  0.78125 0.531
[...]
<CellData  Scalars="f_59195"> 
<DataArray  type="Float64"  Name="f_59195"  format="ascii">9.0550969786794679e-09   9.0918378939561495e-09   2.2087178986224209e-08   2.9443755518548164e-08   4.1142914825025071e-08   6.1868115244934495e-08   6.5471478214389801e-08   1.0575958944064891e-07   9.4128232125452702e-08   1.5940025989612165e-07   1.2600804134187604e-07   2.2070965187125452e-07   1.5988531236068542e-07   2.8732254573403455e-07   1.9445936597115859e-07   3.5667647506246636e-07   2.2840335423949038e-07   4.2610730588262227e-07   2.6041467672461970e-07   4.9294962666958208e-07   2.8926478297577123e-07   5.5463799051237437e-07   3.1384630924292828e-07   6.0880488514368393e-07   3.3321564519531012e-07   6.5337144682542189e-07   3.4662923946914277e-07   6.8662727097252125e-07   3.5357221916985209e-07   7.0729614936183754e-07   3.5377820941490829e-07   7.1458514833677228e-07   3.4723958560986082e-07   7.0821511104666879e-07   3.3420776299542842e-07   6.8843139714990865e-07   3.1518351311563607e-07   6.5599444192031835e-07   2.9089768250809377e-07   6.1215049781643678e-07   2.6228306226995039e-07   5.5858368916306491e-07   2.3043850626550396e-07   4.9735123914202428e-07   1.9658671008034816e-07   4.3080439467898852e-07   1.6202733335272627e-07   3.6149815920286126e-07   1.2808736609367671e-07   2.9209342899850183e-07   9.6070793058947118e-08   2.2525549950239718e-07   6.7209676908732316e-08   1.6355313909716848e-07   4.2618717785348751e-08   1.0936247169664366e-07   2.3255084753461902e-08   6.4779669272453778e-08   9.8847966043639106e-09   3.1545764258572022e-08   3.0563365442097944e-09   1.0985539536268719e-08   2.2535244005973775e-09   3.9604069152753188e-09   4.7775043478107456e-08   4.0552293061386776e-08   7.9946540604476361e-08   8.0019703272678917e-08   1.2320772396248664e-07   1.2334786658013855e-07   1.7587798428266697e-07   1.7604201905292545e-07   2.3592237826742340e-07   2.3606492125073345e-07   3.0103089014153469e-07   3.0110831894918916e-07   3.6870410381105376e-07   3.6867707757528072e-07   4.3634642256376338e-07   4.3618146208254748e-07   5.0136399004371675e-07   5.0103446602255409e-07   5.6126341629323337e-07   5.6075015739857519e-07   6.1374721577020834e-07   6.1303884904890418e-07   6.5680203192997744e-07   6.5589510113099773e-07   6.8877608439555913e-07   6.8767495546140478e-07   7.0844276202471544e-07   7.0715931189488817e-07   7.1504786755346788e-07   7.1360095367766342e-07   7.0833867735577128e-07   7.0675339389306344e-07   6.8857369419645440e-07   6.8688043217462421e-07   6.5651272035231876e-07   6.5474606014537358e-07   6.1338763922146743e-07   6.1158511276942725e-07   5.6085504058353578e-07   5.5905580622375631e-07   5.0093253346562079e-07   4.9917600639661335e-07   4.3592123879031884e-07   4.3424571271153618e-07   3.6831752233415499e-07   3.6675879984280516e-07   3.0071750040892135e-07   2.9930751837550214e-07   2.3571820870090159e-07   2.3448359928170119e-07   1.7581954196086141e-07   1.7478001609381804e-07   1.2333109547425307e-07   1.2249749504010670e-07   8.0287763469801780e-08   7.9659649227341284e-08   4.8377195803828261e-08   4.7940000111887167e-08   2.8880758769689914e-08   2.8602901668503826e-08   2.2627433995159535e-08   2.2458239804092994e-08   2.2199307928528198e-08   2.9826807230297691e-08   1.1733637050262954e-07   9.6803170341506536e-08   1.6045220725844282e-07   1.6045826663974657e-07   2.1217363144336962e-07   2.1223309707344501e-07   2.7051666748617912e-07   2.7058180197015443e-07   3.3324906599535651e-07   3.3327282256167553e-07   3.9797349954172844e-07   3.9791435354421847e-07   4.6221651170797292e-07   4.6204031682310904e-07   5.2352158690610947e-07   5.2320211499614163e-07   5.7954277236226896e-07   5.7906171512317090e-07   6.2813481022195591e-07   6.2748159509149075e-07   6.6743591357987187e-07   6.6660744805376469e-07   6.9593974897111857e-07   6.9494009705616462e-07   7.1255372711039098e-07   7.1139368532987385e-07   7.1664131000757203e-07   7.1533785021095126e-07   7.0804670002009865e-07   7.0662226054458808e-07   6.8710097268760746e-07   6.8558259713089182e-07   6.5460943458006189e-07   6.5302777359775908e-07   6.1182071011960980e-07   6.1020891410801665e-07   5.6037876500888846e-07   5.5877130326607701e-07   5.0225973585679203e-07   5.0069117972446475e-07   4.3969603463698022e-07   4.3819983659652415e-07   3.7509071461717224e-07   3.7369799982333764e-07   3.1092550627586333e-07   3.0966386462750379e-07   2.4966624347895813e-07   2.4855846708448841e-07   1.9366958233867446e-07   1.9273223819327034e-07   1.4509492927997469e-07   1.4433660637662563e-07   1.0582526001473194e-07   1.0524432793773090e-07   7.7399872865718445e-08   7.6981726472187734e-08   6.0960832731330363e-08   6.0675023984931615e-08   5.7212666313675395e-08   5.7011193214248830e-08   6.6391897190924098e-08   6.6211107982107333e-08   6.6830100304216200e-08   8.8009860309404844e-08   2.1559202719574495e-07   1.7556564011392523e-07   2.6754977800997881e-07   2.6751818866821412e-07   3.2494905323523816e-07   3.2496730037215888e-07   3.8560805656843191e-07   3.8562593433574609e-07   4.4722505706888440e-07   4.4719693335455632e-07   5.0746037382489145e-07   5.0734952055020852e-07   5.6402303085480164e-07   5.6380221875146000e-07   6.1475782029720460e-07   6.1440859093901144e-07   6.5772848690225194e-07   6.5724016587290868e-07   6.9129306511498715e-07   6.9066189413443774e-07   7.1416800141923636e-07   7.1339644407712483e-07   7.2547837141848624e-07   7.2457452745765015e-07   7.2479218849135054e-07   7.2376923048110353e-07   7.1213749001471611e-07   7.1101305507359560e-07   6.8800157975507050e-07   6.8679707814277780e-07   6.5331249702514573e-07   6.5205232622202654e-07   6.0940346255707017e-07   6.0811413570918053e-07   5.5796170032864410e-07   5.5667091088830647e-07   5.0096363410974927e-07   4.9969928420405585e-07   4.4059898826029285e-07   4.3938820632175973e-07   3.7918676783974113e-07   3.7805492992628046e-07   3.1908644048407571e-07   3.1805618717262782e-07   2.6260788144986485e-07   2.6169808598540166e-07   2.1192376206990446e-07   2.1114835618246567e-07   1.6898803824997283e-07   1.6835454935385202e-07   1.3546397912968297e-07   1.3497160696521625e-07   1.1266466145483804e-07   1.1230179397337314e-07   1.0150785499725359e-07   1.0124922420647679e-07   1.0248547933270269e-07   1.0228987813229297e-07   1.1564516752926259e-07   1.1545591596461452e-07   1.4057857170520507e-07   1.4033028726110595e-07   1.3520262431880783e-07   1.7604547208190092e-07   3.3864091780199548e-07   2.7372147345703038e-07   3.9701001259836946e-07   3.9697782162929702e-07   4.5710432719911030e-07   4.5712430706570690e-07   5.1665758642653969e-07   5.1667682120755256e-07   5.7342753598387146e-07   5.7340245407367344e-07   6.2527303721951271e-07   6.2517222337481800e-07   6.7023334435806814e-07   6.7003643219597141e-07   7.0660360779178713e-07   7.0629916390565731e-07   7.3300188612022359e-07   7.3258548406983432e-07   7.4842405329819775e-07   7.4789685287581394e-07   7.5228399926533419e-07   7.5165177341749609e-07   7.4443741108771745e-07   7.4370985849803520e-07   7.2518821650297630e-07   7.2437840789972509e-07   6.9527750394645340e-07   6.9440135589358378e-07   6.5585542098348064e-07   6.5493113789896755e-07   6.0843719960139839e-07   6.0748466123494032e-07   5.5484505364176301e-07   5.5388514934678992e-07   4.9713822638293728e-07   4.9619215054016394e-07   4.3753391908317207e-07   4.3662244544258634e-07   3.7832219007644300e-07   3.7746493695058734e-07   3.2177816826616204e-07   3.2099285047370051e-07   2.7007506787602979e-07   2.6937670338048953e-07   2.2520151815958220e-07   2.2460151674730700e-07   1.8888662362015705e-07   1.8839163604171361e-07   1.6253592284446273e-07   1.6214628920683617e-07   1.4718095805045876e-07   1.4688860910319320e-07   1.4344438259428412e-07   1.4323021008088896e-07   1.5152122110112610e-07   1.5135240076141630e-07   1.7117482613529398e-07   1.7100353972641351e-07   2.0174325668317827e-07   2.0150973428383730e-07   2.4214940544308600e-07   2.4179330426113016e-07   2.2455500415355784e-07   2.9039201308599930e-07   4.8167526053505273e-07   3.8744227309152002e-07   5.4379401394999740e-07   5.4379935988452706e-07   6.0351346759799453e-07   6.0357398000540829e-07   6.5859936469059322e-07   6.5865840731110434e-07   7.0699487299297820e-07   7.0701072783838031e-07   7.4688974819367035e-07   7.4683610460033999e-07   7.7678769248040358e-07   7.7665049465324060e-07   7.9556523294819678e-07   7.9533912921814867e-07   8.0251745223743036e-07   8.0220302012495098e-07   7.9738762252310963e-07   7.9698953215312756e-07   7.8037914377614372e-07   7.7990504600243440e-07   7.5214924088285288e-07   7.5160910189888419e-07   7.1378473350791679e-07   7.1319039131908481e-07   6.6676092690867126e-07   6.6612572344856927e-07   6.1288531542553525e-07   6.1222372512616897e-07   5.5422835227339551e-07   5.5355557452509264e-07   4.9304401449867898e-07   4.9237552518127425e-07   4.3168326975801742e-07   4.3103433983446809e-07   3.7250382084767904e-07   3.7188901105594752e-07   3.1777965667271934e-07   3.1721228796658318e-07   2.6961397106443771e-07   2.6910555037434432e-07   2.2985892392404548e-07   2.2941847324552120e-07   2.0004551383429807e-07   1.9967870887916898e-07   1.8132650250884320e-07   1.8103448371897449e-07   1.7443485488140961e-07   1.7421255402963223e-07   1.7965947036077115e-07   1.7949335827963083e-07   1.9683895366917741e-07   1.9670436854385079e-07   2.2537261108963227e-07   2.2523144034791907e-07   2.6424557211309921e-07   2.6404619995045235e-07   3.1206209385519440e-07   3.1174507089278435e-07   3.6707929176451701e-07   3.6659282759733360e-07   3.3137216970657452e-07   4.2656275367676848e-07   6.3915851527078068e-07   5.1233014628236673e-07   7.0223400044437541e-07   7.0231211761244023e-07   7.5853485101403578e-07   7.5866761346625900e-07   8.0597381578675478e-07   8.0610005950963696e-07   8.4279806016932840e-07   8.4287773412166964e-07   8.6764755558051391e-07   8.6765928068512563e-07   8.7960654809788085e-07   8.7954216181711929e-07   8.7824143426763623e-07   8.7810099963942097e-07   8.6362092709100191e-07   8.6340921509863935e-07   8.3631654192971555e-07   8.3604091115348288e-07   7.9738301482631133e-07   7.9705227923165765e-07   7.4831941992788661e-07   7.4794329698999729e-07   6.9101262972165905e-07   6.9060146984456643e-07   6.2766545834898689e-07   6.2723007187070755e-07   5.6071239036979218e-07   5.6026387648905395e-07   4.9272623901192978e-07   4.9227577751656129e-07   4.2631939735378079e-07   4.2587799492132756e-07   3.6404353634463101e-07   3.6362173142127803e-07   3.0829165960690615e-07   3.0789918847818013e-07   2.6120634565027378e-07   2.6085175970776939e-07   2.2459779775617399e-07   2.2428799869303325e-07   1.9987498866675177e-07   1.9961461473359862e-07   1.8799273947196217e-07   1.8778329545009027e-07   1.8941700952174944e-07   1.8925559841512577e-07   2.0410997412872511e-07   2.0398749234998176e-07   2.3153556382114407e-07   2.3143433218420592e-07   2.7068490373486846e-07   2.7057604468112093e-07   3.2011933468028192e-07   3.1996094217417119e-07   3.7802627157633792e-07   3.7776468616775331e-07   4.4228035883752801e-07   4.4185840440568891e-07   5.1050114534293034e-07   5.0987733900960339e-07   4.5150911582272624e-07   5.7928116886378216e-07   8.0502540837956242e-07   6.4357693691847758e-07   8.6623692132185797e-07   8.6641792628987965e-07   9.1621384740839434e-07   9.1644288289543934e-07   9.5312498511345808e-07   9.5333621048017260e-07   9.7562841037107069e-07   9.7578364397970679e-07   9.8291635951648669e-07   9.8299928097483718e-07   9.7474745734957415e-07   9.7475568854929468e-07   9.5146005342040210e-07   9.5139876072828958e-07   9.1396353415403762e-07   9.1384128151737214e-07   8.6370690333609763e-07   8.6353337014359919e-07   8.0262562661991763e-07   8.0241055399115210e-07   7.3306891635765630e-07   7.3282173610828773e-07   6.5771047734116165e-07   6.5744025204252249e-07   5.7944635387410668e-07   5.7916181176900825e-07   5.0128396564418776e-07   5.0099352329134001e-07   4.2622671062219531e-07   4.2593844176040352e-07   3.5715864869842236e-07   3.5688019101606256e-07   2.9673375772492881e-07   2.9647216035408810e-07   2.4727407496174887e-07   2.4703558553385834e-07   2.1068070844244777e-07   2.1047048296903540e-07   1.8836123728572059e-07   1.8818293036383913e-07   1.8117643420236172e-07   1.8103159259786138e-07   1.8940855292458793e-07   1.8929569805187682e-07   2.1275263325559708e-07   2.1266589396319493e-07   2.5033136698830266e-07   2.5025855209112746e-07   3.0073297374835594e-07   3.0065313047406635e-07   3.6207012761851928e-07   3.6195104600616642e-07   4.3205607153850523e-07   4.3185303414641201e-07   5.0809154808776775e-07   5.0774998593680285e-07   5.8735348115170435e-07   5.8681970444674947e-07   6.6687571066021528e-07   6.6611953964013478e-07   5.8033573425716429e-07   7.4266525576363362e-07   9.7290354741650652e-07   7.7614059590056898e-07   1.0295074797958300e-06   1.0298152719870749e-06   1.0705016828998433e-06   1.0708436635290090e-06   1.0944099901651671e-06   1.0947162537682979e-06   1.1003926121907632e-06   1.1006275070947072e-06   1.0882750535489458e-06   1.0884277504544384e-06   1.0585584325350460e-06   1.0586324883024060e-06   1.0124056910713056e-06   1.0124113233056827e-06   9.5160188086599205e-07   9.5155131403460058e-07   8.7848930686628272e-07   8.7839444101093412e-07   7.9588002777105520e-07   7.9575154572077841e-07   7.0694934610883031e-07   7.0679657294739662e-07   6.1511468111900447e-07   6.1494575666134109e-07   5.2390472378426522e-07   5.2372684578793729e-07   4.3682407586074374e-07   4.3664370111893068e-07   3.5721868978081771e-07   3.5704165363199573e-07   2.8814735688460716e-07   2.8797890608548020e-07   2.3226423994814890e-07   2.3210898322858422e-07   1.9171702015331097e-07   1.9157879397626306e-07   1.6806464352698821e-07   1.6794627221022695e-07   1.6221792913437279e-07   1.6212083076715183e-07   1.7440546625398564e-07   1.7432902140611783e-07   2.0416630344539067e-07   2.0410687012158308e-07   2.5036992968654439e-07   2.5031937528429029e-07   3.1126294980307384e-07   3.1120662297922972e-07   3.8454059881625423e-07   3.8445486439365570e-07   4.6743969459825742e-07   4.6728963672190321e-07   5.5684762350001400e-07   5.5658644978231833e-07   6.4941942032769059e-07   6.4899253261540455e-07   7.4169248139689038e-07   7.4105061998051507e-07   8.3018849041911262e-07   8.2931350023650610e-07   7.1290267634996104e-07   9.1043914817836452e-07   1.1363501668787735e-06   9.0493312891608149e-07   1.1857828220858439e-06   1.1862346089555660e-06   1.2154819317566313e-06   1.2159467834864164e-06   1.2244115611575612e-06   1.2248167956543649e-06   1.2123060854500457e-06   1.2126196142013328e-06   1.1796811469838299e-06   1.1798982659678710e-06   1.1278201689155540e-06   1.1279506563912165e-06   1.0587318791786022e-06   1.0587910722211744e-06   9.7507859138072558e-07   9.7508235954635981e-07   8.8007766413216268e-07   8.8004013492800945e-07   7.7738020284261687e-07   7.7731309896964089e-07   6.7093208441819639e-07   6.7084485002929406e-07   5.6482301523333982e-07   5.6472323207493855e-07   4.6312969200768628e-07   4.6302352466651090e-07   3.6975926886216079e-07   3.6965182644432202e-07   2.8829925489520525e-07   2.8819483594675197e-07   2.2187967915726779e-07   2.2178190103112457e-07   1.7305287084069779e-07   1.7296469161307067e-07   1.4369552657996729e-07   1.4361915776280208e-07   1.3493689741336334e-07   1.3487358467157803e-07   1.4711595569294858e-07   1.4706557551921407e-07   1.7976933076964538e-07   1.7972971730347170e-07   2.3165066188008232e-07   2.3161654924238505e-07   3.0078082346821556e-07   3.0074228818915598e-07   3.8452721846698460e-07   3.8446758237332720e-07   4.7970894591370067e-07   4.7960234083762162e-07   5.8272300567536739e-07   5.8253234452242848e-07   6.8968464662182132e-07   6.8936174657630741e-07   7.9657247128235124e-07   7.9606355412971359e-07   8.9936664212633722e-07   8.9862777661590934e-07   9.9416932756802914e-07   9.9319498248684350e-07   8.4412330989144813e-07   1.0761648748386728e-06   1.2890947794930309e-06   1.0250126708605812e-06   1.3290691875656654e-06   1.3296753455863575e-06   1.3455948618274446e-06   1.3461863560681395e-06   1.3381442831410019e-06   1.3386474577796225e-06   1.3070760330421955e-06   1.3074636232610431e-06   1.2536264100514302e-06   1.2539005412318763e-06   1.1798710947294371e-06   1.1800480630814101e-06   1.0886535059915614e-06   1.0887538350417536e-06   9.8348132078033396e-07   9.8352451007913337e-07   8.6839529445382426e-07   8.6839770251483451e-07   7.4781600495413380e-07   7.4779047433449164e-07   6.2637498434675564e-07   6.2633126004705251e-07   5.0873715971887507e-07   5.0868255241757434e-07   3.9942171050428305e-07   3.9936173362970434e-07   3.0262839610155031e-07   3.0256727001109575e-07   2.2207612380325908e-07   2.2201712391114865e-07   1.6086001669762489e-07   1.6080567546657421e-07   1.2133251551734261e-07   1.2128469196081254e-07   1.0501312902807285e-07   1.0497294623444963e-07   1.1253036610749080e-07   1.1249799372315926e-07   1.4359817812105000e-07   1.4357240634415033e-07   1.9702795411626568e-07   1.9700547324367161e-07   2.7077578052486776e-07   2.7075005663601052e-07   3.6202332234348471e-07   3.6198297115318151e-07   4.6728929334833216e-07   4.6721595303369286e-07   5.8256699813349872e-07   5.8243298066065406e-07   7.0348172914124107e-07   7.0324832599070367e-07   8.2545974722077963e-07   8.2507812385858880e-07   9.4389819161137904e-07   9.4331630155965487e-07   1.0543233384619859e-06   1.0535034872774077e-06   1.1525262336628422e-06   1.1514759717823002e-06   9.6896436080656791e-07   1.2334844578161490e-06   1.4252775760362415e-06   1.1317716465032712e-06   1.4538703882141394e-06   1.4546345209713624e-06   1.4558499066357313e-06   1.4565661815185542e-06   1.4312456072379302e-06   1.4318415311723085e-06   1.3810663796774785e-06   1.3815208472975429e-06   1.3072721256333212e-06   1.3075947439232023e-06   1.2127104467659916e-06   1.2129242358598507e-06   1.1010164485209876e-06   1.1011470980255470e-06   9.7647895302645420e-07   9.7654950345463688e-07   8.4387897602375276e-07   8.4390795426301340e-07   7.0830757996054121e-07   7.0830895935618503e-07   5.7497083029417133e-07   5.7495475669688460e-07   4.4898983634229939e-07   4.4896353516748417e-07   3.3520384885405667e-07   3.3517244071157127e-07   2.3798413566981352e-07   2.3795126519815072e-07   1.6106586492538620e-07   1.6103413285597808e-07   1.0740449562429314e-07   1.0737571453228555e-07   7.9062223067006379e-08   7.9037517209697873e-08   7.7128879712771793e-08   7.7108632806754593e-08   1.0168038987032370e-07   1.0166401874578419e-07   1.5177646583600973e-07   1.5176196683018143e-07   2.2549776221787819e-07   2.2548094650855765e-07   3.2002121658275496e-07   3.1999453314594137e-07   4.3173082305258712e-07   4.3168169182437551e-07   5.5635960301458250e-07   5.5626830159506391e-07   6.8915699631846498e-07   6.8899445615242463e-07   8.2507418617252590e-07   8.2480069413574709e-07   9.5895787442463934e-07   9.5852477197941316e-07   1.0857408233544314e-06   1.0850987766677724e-06   1.2006159731490003e-06   1.1997344070967232e-06   1.2991833952545700e-06   1.2980831758974881e-06   1.0826369267426274e-06   1.3763617213180986e-06   1.5396735431021449e-06   1.2211131407166977e-06   1.5553984369455838e-06   1.5563175802108312e-06   1.5420172567952715e-06   1.5428512988471549e-06   1.5001435991619198e-06   1.5008235062840280e-06   1.4314377966802520e-06   1.4319498993110124e-06   1.3385585727815343e-06   1.3389204629311417e-06   1.2250755582542289e-06   1.2253170259122030e-06   1.0953422358290211e-06   1.0954939777280193e-06   9.5433445501629909e-07   9.5442285143228253e-07   8.0746202228252549e-07   8.0750761229772306e-07   6.6036183730110762e-07   6.6037964998479453e-07   5.1868139574095643e-07   5.1868198976721470e-07   3.8786150571413362e-07   3.8785211063130615e-07   2.7292684960507396e-07   2.7291234380672270e-07   1.78292571