<?xml version="1.0"?>
<VTKFile type="UnstructuredGrid"  version="0.1"  >
<UnstructuredGrid>
<Piece  NumberOfPoints="1089" NumberOfCells="2048">
<Points>
<DataArray  type="Float64"  NumberOfComponents="3"  format="ascii">0 0 0  0.03125 0 0  0.0625 0 0  0.09375 0 0  0.125 0 0  0.15625 0 0  0.1875 0 0  0.21875 0 0  0.25 0 0  0.28125 0 0  0.3125 0 0  0.34375 0 0  0.375 0 0  0.40625 0 0  0.4375 0 0  0.46875 0 0  0.5 0 0  0.53125 0 0  0.5625 0 0  0.59375 0 0  0.625 0 0  0.65625 0 0  0.6875 0 0  0.71875 0 0  0.75 0 0  0.78125 0 0  0.8125 0 0  0.84375 0 0  0.875 0 0  0.90625 0 0  0.9375 0 0  0.96875 0 0  1 0 0  0 0.03125 0  0.03125 0.03125 0  0.0625 0.03125 0  0.09375 0.03125 0  0.125 0.03125 0  0.15625 0.03125 0  0.1875 0.03125 0  0.21875 0.03125 0  0.25 0.03125 0  0.28125 0.03125 0  0.3125 0.03125 0  0.34375 0.03125 0  0.375 0.03125 0  0.40625 0.03125 0  0.4375 0.03125 0  0.46875 0.03125 0  0.5 0.03125 0  0.53125 0.03125 0  0.5625 0.03125 0  0.59375 0.03125 0  0.625 0.03125 0  0.65625 0.03125 0  0.6875 0.03125 0  0.71875 0.03125 0  0.75 0.03125 0  0.78125 0.03125 0  0.8125 0.03125 0  0.84375 0.03125 0  0.875 0.03125 0  0.90625 0.03125 0  0.9375 0.03125 0  0.96875 0.03125 0  1 0.03125 0  0 0.0625 0  0.03125 0.0625 0  0.0625 0.0625 0  0.09375 0.0625 0  0.125 0.0625 0  0.15625 0.0625 0  0.1875 0.0625 0  0.21875 0.0625 0  0.25 0.0625 0  0.28125 0.0625 0  0.3125 0.0625 0  0.34375 0.0625 0  0.375 0.0625 0  0.40625 0.0625 0  0.4375 0.0625 0  0.46875 0.0625 0  0.5 0.0625 0  0.53125 0.0625 0  0.5625 0.0625 0  0.59375 0.0625 0  0.625 0.0625 0  0.65625 0.0625 0  0.6875 0.0625 0  0.71875 0.0625 0  0.75 0.0625 0  0.78125 0.0625 0  0.8125 0.0625 0  0.84375 0.0625 0  0.875 0.0625 0  0.90625 0.0625 0  0.9375 0.0625 0  0.96875 0.0625 0  1 0.0625 0  0 0.09375 0  0.03125 0.09375 0  0.0625 0.09375 0  0.09375 0.09375 0  0.125 0.09375 0  0.15625 0.09375 0  0.1875 0.09375 0  0.21875 0.09375 0  0.25 0.09375 0  0.28125 0.09375 0  0.3125 0.09375 0  0.34375 0.09375 0  0.375 0.09375 0  0.40625 0.09375 0  0.4375 0.09375 0  0.46875 0.09375 0  0.5 0.09375 0  0.53125 0.09375 0  0.5625 0.09375 0  0.59375 0.09375 0  0.625 0.09375 0  0.65625 0.09375 0  0.6875 0.09375 0  0.71875 0.09375 0  0.75 0.09375 0  0.78125 0.09375 0  0.8125 0.09375 0  0.84375 0.09375 0  0.875 0.09375 0  0.90625 0.09375 0  0.9375 0.09375 0  0.96875 0.09375 0  1 0.09375 0  0 0.125 0  0.03125 0.125 0  0.0625 0.125 0  0.09375 0.125 0  0.125 0.125 0  0.15625 0.125 0  0.1875 0.125 0  0.21875 0.125 0  0.25 0.125 0  0.28125 0.125 0  0.3125 0.125 0  0.34375 0.125 0  0.375 0.125 0  0.40625 0.125 0  0.4375 0.125 0  0.46875 0.125 0  0.5 0.125 0  0.53125 0.125 0  0.5625 0.125 0  0.59375 0.125 0  0.625 0.125 0  0.65625 0.125 0  0.6875 0.125 0  0.71875 0.125 0  0.75 0.125 0  0.78125 0.125 0  0.8125 0.125 0  0.84375 0.125 0  0.875 0.125 0  0.90625 0.125 0  0.9375 0.125 0  0.96875 0.125 0  1 0.125 0  0 0.15625 0  0.03125 0.15625 0  0.0625 0.15625 0  0.09375 0.15625 0  0.125 0.15625 0  0.15625 0.15625 0  0.1875 0.15625 0  0.21875 0.15625 0  0.25 0.15625 0  0.28125 0.15625 0  0.3125 0.15625 0  0.34375 0.15625 0  0.375 0.15625 0  0.40625 0.15625 0  0.4375 0.15625 0  0.46875 0.15625 0  0.5 0.15625 0  0.53125 0.15625 0  0.5625 0.15625 0  0.59375 0.15625 0  0.625 0.15625 0  0.65625 0.15625 0  0.6875 0.15625 0  0.71875 0.15625 0  0.75 0.15625 0  0.78125 0.15625 0  0.8125 0.15625 0  0.84375 0.15625 0  0.875 0.15625 0  0.90625 0.15625 0  0.9375 0.15625 0  0.96875 0.15625 0  1 0.15625 0  0 0.1875 0  0.03125 0.1875 0  0.0625 0.1875 0  0.09375 0.1875 0  0.125 0.1875 0  0.15625 0.1875 0  0.1875 0.1875 0  0.21875 0.1875 0  0.25 0.1875 0  0.28125 0.1875 0  0.3125 0.1875 0  0.34375 0.1875 0  0.375 0.1875 0  0.40625 0.1875 0  0.4375 0.1875 0  0.46875 0.1875 0  0.5 0.1875 0  0.53125 0.1875 0  0.5625 0.1875 0  0.59375 0.1875 0  0.625 0.1875 0  0.65625 0.1875 0  0.6875 0.1875 0  0.71875 0.1875 0  0.75 0.1875 0  0.78125 0.1875 0  0.8125 0.1875 0  0.84375 0.1875 0  0.875 0.1875 0  0.90625 0.1875 0  0.9375 0.1875 0  0.96875 0.1875 0  1 0.1875 0  0 0.21875 0  0.03125 0.21875 0  0.0625 0.21875 0  0.09375 0.21875 0  0.125 0.21875 0  0.15625 0.21875 0  0.1875 0.21875 0  0.21875 0.21875 0  0.25 0.21875 0  0.28125 0.21875 0  0.3125 0.21875 0  0.34375 0.21875 0  0.375 0.21875 0  0.40625 0.21875 0  0.4375 0.21875 0  0.46875 0.21875 0  0.5 0.21875 0  0.53125 0.21875 0  0.5625 0.21875 0  0.59375 0.21875 0  0.625 0.21875 0  0.65625 0.21875 0  0.6875 0.21875 0  0.71875 0.21875 0  0.75 0.21875 0  0.78125 0.21875 0  0.8125 0.21875 0  0.84375 0.21875 0  0.875 0.21875 0  0.90625 0.21875 0  0.9375 0.21875 0  0.96875 0.21875 0  1 0.21875 0  0 0.25 0  0.03125 0.25 0  0.0625 0.25 0  0.09375 0.25 0  0.125 0.25 0  0.15625 0.25 0  0.1875 0.25 0  0.21875 0.25 0  0.25 0.25 0  0.28125 0.25 0  0.3125 0.25 0  0.34375 0.25 0  0.375 0.25 0  0.40625 0.25 0  0.4375 0.25 0  0.46875 0.25 0  0.5 0.25 0  0.53125 0.25 0  0.5625 0.25 0  0.59375 0.25 0  0.625 0.25 0  0.65625 0.25 0  0.6875 0.25 0  0.71875 0.25 0  0.75 0.25 0  0.78125 0.25 0  0.8125 0.25 0  0.84375 0.25 0  0.875 0.25 0  0.90625 0.25 0  0.9375 0.25 0  0.96875 0.25 0  1 0.25 0  0 0.28125 0  0.03125 0.28125 0  0.0625 0.28125 0  0.09375 0.28125 0  0.125 0.28125 0  0.15625 0.28125 0  0.1875 0.28125 0  0.21875 0.28125 0  0.25 0.28125 0  0.28125 0.28125 0  0.3125 0.28125 0  0.34375 0.28125 0  0.375 0.28125 0  0.40625 0.28125 0  0.4375 0.28125 0  0.46875 0.28125 0  0.5 0.28125 0  0.53125 0.28125 0  0.5625 0.28125 0  0.59375 0.28125 0  0.625 0.28125 0  0.65625 0.28125 0  0.6875 0.28125 0  0.71875 0.28125 0  0.75 0.28125 0  0.78125 0.28125 0  0.8125 0.28125 0  0.84375 0.28125 0  0.875 0.28125 0  0.90625 0.28125 0  0.9375 0.28125 0  0.96875 0.28125 0  1 0.28125 0  0 0.3125 0  0.03125 0.3125 0  0.0625 0.3125 0  0.09375 0.3125 0  0.125 0.3125 0  0.15625 0.3125 0  0.1875 0.3125 0  0.21875 0.3125 0  0.25 0.3125 0  0.28125 0.3125 0  0.3125 0.3125 0  0.34375 0.3125 0  0.375 0.3125 0  0.40625 0.3125 0  0.4375 0.3125 0  0.46875 0.3125 0  0.5 0.3125 0  0.53125 0.3125 0  0.5625 0.3125 0  0.59375 0.3125 0  0.625 0.3125 0  0.65625 0.3125 0  0.6875 0.3125 0  0.71875 0.3125 0  0.75 0.3125 0  0.78125 0.3125 0  0.8125 0.3125 0  0.84375 0.3125 0  0.875 0.3125 0  0.90625 0.3125 0  0.9375 0.3125 0  0.96875 0.3125 0  1 0.3125 0  0 0.34375 0  0.03125 0.34375 0  0.0625 0.34375 0  0.09375 0.34375 0  0.125 0.34375 0  0.15625 0.34375 0  0.1875 0.34375 0  0.21875 0.34375 0  0.25 0.34375 0  0.28125 0.34375 0  0.3125 0.34375 0  0.34375 0.34375 0  0.375 0.34375 0  0.40625 0.34375 0  0.4375 0.34375 0  0.46875 0.34375 0  0.5 0.34375 0  0.53125 0.34375 0  0.5625 0.34375 0  0.59375 0.34375 0  0.625 0.34375 0  0.65625 0.34375 0  0.6875 0.34375 0  0.71875 0.34375 0  0.75 0.34375 0  0.78125 0.34375 0  0.8125 0.34375 0  0.84375 0.34375 0  0.875 0.34375 0  0.90625 0.34375 0  0.9375 0.34375 0  0.96875 0.34375 0  1 0.34375 0  0 0.375 0  0.03125 0.375 0  0.0625 0.375 0  0.09375 0.375 0  0.125 0.375 0  0.15625 0.375 0  0.1875 0.375 0  0.21875 0.375 0  0.25 0.375 0  0.28125 0.375 0  0.3125 0.375 0  0.34375 0.375 0  0.375 0.375 0  0.40625 0.375 0  0.4375 0.375 0  0.46875 0.375 0  0.5 0.375 0  0.53125 0.375 0  0.5625 0.375 0  0.59375 0.375 0  0.625 0.375 0  0.65625 0.375 0  0.6875 0.375 0  0.71875 0.375 0  0.75 0.375 0  0.78125 0.375 0  0.8125 0.375 0  0.84375 0.375 0  0.875 0.375 0  0.90625 0.375 0  0.9375 0.375 0  0.96875 0.375 0  1 0.375 0  0 0.40625 0  0.03125 0.40625 0  0.0625 0.40625 0  0.09375 0.40625 0  0.125 0.40625 0  0.15625 0.40625 0  0.1875 0.40625 0  0.21875 0.40625 0  0.25 0.40625 0  0.28125 0.40625 0  0.3125 0.40625 0  0.34375 0.40625 0  0.375 0.40625 0  0.40625 0.40625 0  0.4375 0.40625 0  0.46875 0.40625 0  0.5 0.40625 0  0.53125 0.40625 0  0.5625 0.40625 0  0.59375 0.40625 0  0.625 0.40625 0  0.65625 0.40625 0  0.6875 0.40625 0  0.71875 0.40625 0  0.75 0.40625 0  0.78125 0.40625 0  0.8125 0.40625 0  0.84375 0.40625 0  0.875 0.40625 0  0.90625 0.40625 0  0.9375 0.40625 0  0.96875 0.40625 0  1 0.40625 0  0 0.4375 0  0.03125 0.4375 0  0.0625 0.4375 0  0.09375 0.4375 0  0.125 0.4375 0  0.15625 0.4375 0  0.1875 0.4375 0  0.21875 0.4375 0  0.25 0.4375 0  0.28125 0.4375 0  0.3125 0.4375 0  0.34375 0.4375 0  0.375 0.4375 0  0.40625 0.4375 0  0.4375 0.4375 0  0.46875 0.4375 0  0.5 0.4375 0  0.53125 0.4375 0  0.5625 0.4375 0  0.59375 0.4375 0  0.625 0.4375 0  0.65625 0.4375 0  0.6875 0.4375 0  0.71875 0.4375 0  0.75 0.4375 0  0.78125 0.4375 0  0.8125 0.4375 0  0.84375 0.4375 0  0.875 0.4375 0  0.90625 0.4375 0  0.9375 0.4375 0  0.96875 0.4375 0  1 0.4375 0  0 0.46875 0  0.03125 0.46875 0  0.0625 0.46875 0  0.09375 0.46875 0  0.125 0.46875 0  0.15625 0.46875 0  0.1875 0.46875 0  0.21875 0.46875 0  0.25 0.46875 0  0.28125 0.46875 0  0.3125 0.46875 0  0.34375 0.46875 0  0.375 0.46875 0  0.40625 0.46875 0  0.4375 0.46875 0  0.46875 0.46875 0  0.5 0.46875 0  0.53125 0.46875 0  0.5625 0.46875 0  0.59375 0.46875 0  0.625 0.46875 0  0.65625 0.46875 0  0.6875 0.46875 0  0.71875 0.46875 0  0.75 0.46875 0  0.78125 0.46875 0  0.8125 0.46875 0  0.84375 0.46875 0  0.875 0.46875 0  0.90625 0.46875 0  0.9375 0.46875 0  0.96875 0.46875 0  1 0.46875 0  0 0.5 0  0.03125 0.5 0  0.0625 0.5 0  0.09375 0.5 0  0.125 0.5 0  0.15625 0.5 0  0.1875 0.5 0  0.21875 0.5 0  0.25 0.5 0  0.28125 0.5 0  0.3125 0.5 0  0.34375 0.5 0  0.375 0.5 0  0.40625 0.5 0  0.4375 0.5 0  0.46875 0.5 0  0.5 0.5 0  0.53125 0.5 0  0.5625 0.5 0  0.59375 0.5 0  0.625 0.5 0  0.65625 0.5 0  0.6875 0.5 0  0.71875 0.5 0  0.75 0.5 0  0.78125 0.5 0  0.8125 0.5 0  0.84375 0.5 0  0.875 0.5 0  0.90625 0.5 0  0.9375 0.5 0  0.96875 0.5 0  1 0.5 0  0 0.53125 0  0.03125 0.53125 0  0.0625 0.53125 0  0.09375 0.53125 0  0.125 0.53125 0  0.15625 0.53125 0  0.1875 0.53125 0  0.21875 0.53125 0  0.25 0.53125 0  0.28125 0.53125 0  0.3125 0.53125 0  0.34375 0.53125 0  0.375 0.53125 0  0.40625 0.53125 0  0.4375 0.53125 0  0.46875 0.53125 0  0.5 0.53125 0  0.53125 0.53125 0  0.5625 0.53125 0  0.59375 0.53125 0  0.625 0.53125 0  0.65625 0.53125 0  0.6875 0.53125 0  0.71875 0.53125 0  0.75 0.53125 0  0.78125 0.531
[...]
<CellData  Scalars="f_40604"> 
<DataArray  type="Float64"  Name="f_40604"  format="ascii">5.2877260377607474e-08   5.2562512016174096e-08   5.0549454072320299e-08   5.1935239963346289e-08   4.7313421359011685e-08   4.8910519643510745e-08   4.3323685286205922e-08   4.5100289266647497e-08   3.8736818234955273e-08   4.0649448918810856e-08   3.3730167520331435e-08   3.5726834588406008e-08   2.8496638141497976e-08   3.0520861748554638e-08   2.3237639888379421e-08   2.5231373080115032e-08   1.8155462516804164e-08   2.0061583936801003e-08   1.3445545779825413e-08   1.5210170035545890e-08   9.2889893688473835e-09   1.0863597890578284e-08   5.8456049323542454e-09   7.1889442332159622e-09   3.2477821136226613e-09   4.3274683366270976e-09   1.5954062840725261e-09   2.3891801593894072e-09   9.5202412870075814e-10   1.4486112277094014e-09   1.3424048164135810e-09   1.5419498328070933e-09   2.7515906352491675e-09   2.6656500749308591e-09   5.1254736109658325e-09   4.7765678170350484e-09   8.3728759012093348e-09   7.7936179925477586e-09   1.2369053893513551e-08   1.1600889224151489e-08   1.6960491128159856e-08   1.6052095605725775e-08   2.1970795488525289e-08   2.0976193879385742e-08   2.7207473407154128e-08   2.6183948990545744e-08   3.2469319564477629e-08   3.1475193582426049e-08   3.7554135365560488e-08   3.6646498198121188e-08   4.2266471260715250e-08   4.1498948208278999e-08   4.6425061589463817e-08   4.5845706901810281e-08   4.9869502511718791e-08   4.9519018999305636e-08   5.2465052307353929e-08   5.2376232358778500e-08   5.4101161926006909e-08   5.4304203860257755e-08   5.4643736392380454e-08   5.5219372423672492e-08   5.2187175520798839e-08   5.5096331025596398e-08   5.1328070405086920e-08   4.9207363374160094e-08   4.8696290031021015e-08   4.8254703754171202e-08   4.5247597429586374e-08   4.5110254914978913e-08   4.1141408562790841e-08   4.1287137872259387e-08   3.6530250851683817e-08   3.6940294898174440e-08   3.1590555287150484e-08   3.2237429155164154e-08   2.6512007770058377e-08   2.7358152279944926e-08   2.1489760943641014e-08   2.2489282188733215e-08   1.6716842179001252e-08   1.7817587927962289e-08   1.2376709942640326e-08   1.3522440853553087e-08   8.6361944828255644e-09   9.7688321812151211e-09   5.6390832759264255e-09   6.7009897761236169e-09   3.5005943515770665e-09   4.4368140047389158e-09   2.3029485439581112e-09   3.0633352089609344e-09   2.0922101868763732e-09   2.6333623938973022e-09   2.8765172851515036e-09   3.1634495268131031e-09   4.6257688922382321e-09   4.6332563186302629e-09   7.2727814240140754e-09   6.9863272628461056e-09   1.0715869122408369e-08   1.0132258407919309e-08   1.4822748983030220e-08   1.3950168048849361e-08   1.9435619234242326e-08   1.8293337328860954e-08   2.4377214644175130e-08   2.2994841529683587e-08   2.9457602843988367e-08   2.7873954260798222e-08   3.4481453629983009e-08   3.2743076083480770e-08   3.9255485265422322e-08   3.7414917125886418e-08   4.3595757392756579e-08   4.1709650137946233e-08   4.7334403910758192e-08   4.5461746339204480e-08   5.0325176816614835e-08   4.8526215645802072e-08   5.2446575255108258e-08   5.0784025493563469e-08   5.3601305701545184e-08   5.2146820510366970e-08   5.3721904704565313e-08   5.2561186529373625e-08   5.2034535824700490e-08   5.2048258999475115e-08   4.7321106722011987e-08   4.5013954391733667e-08   4.4547677536301527e-08   4.3812505599315397e-08   4.1075815397233207e-08   4.0633192614027940e-08   3.7072655999978004e-08   3.6918513936490931e-08   3.2691311080241868e-08   3.2812172064741598e-08   2.8099395182932583e-08   2.8473658595346386e-08   2.3472914819663169e-08   2.4069765316219188e-08   1.8989446971418861e-08   1.9769430791484260e-08   1.4821190268907581e-08   1.5737645317322733e-08   1.1128288732522189e-08   1.2129173379731830e-08   8.0526500907794296e-09   9.0825865520531606e-09   5.7124785778569090e-09   6.7149132866648730e-09   4.1977250064442322e-09   5.1171234971706048e-09   3.5666257282547307e-09   4.3506205994011694e-09   3.8434618867397332e-09   4.4448737033510796e-09   5.0176241713188018e-09   5.3962793691103914e-09   7.0440184054066197e-09   7.1682956121192647e-09   9.8447958589703404e-09   9.6928422698558234e-09   1.3312341214328735e-08   1.2872913338236306e-08   1.7313402572827216e-08   1.6586300361055569e-08   2.1694203553888963e-08   2.0690283221409379e-08   2.6286338886725378e-08   2.5027107389597321e-08   3.0913222931325575e-08   2.9430036260176573e-08   3.5396835494805023e-08   3.3729744898641404e-08   3.9564490077600560e-08   3.7760808442053447e-08   4.3255334538091265e-08   4.1368036276866240e-08   4.6326289281121782e-08   4.4412416141324755e-08   4.8657206200032247e-08   4.6776473631671945e-08   5.0155621239980982e-08   4.8368956367770959e-08   5.0764907451707509e-08   4.9129039642166288e-08   5.0482759598889684e-08   4.9028961728060744e-08   4.8423408956065775e-08   4.8104374162993821e-08   4.2605578332662458e-08   4.0183537928697914e-08   3.9768878252286366e-08   3.8805207785914834e-08   3.6386990370304379e-08   3.5688144227864947e-08   3.2616699194688796e-08   3.2193542104177009e-08   2.8603363119802935e-08   2.8452340487592810e-08   2.4501294919953703e-08   2.4608970881273893e-08   2.0467911639506606e-08   2.0811358665924345e-08   1.6658020150311137e-08   1.7205431531998100e-08   1.3217907304797153e-08   1.3929657312110594e-08   1.0279703353034731e-08   1.1109814938280918e-08   7.9562866240333743e-09   8.8541904027675914e-09   6.3369330187913466e-09   7.2494174182980474e-09   5.4838766997263547e-09   6.3571421526267014e-09   5.4299126307867532e-09   6.2116471818162214e-09   6.1771319628864660e-09   6.8185278048467562e-09   7.6968380634095290e-09   8.1544717726471584e-09   9.9306458077942377e-09   1.0168150632827590e-08   1.2792721344210735e-08   1.2782188082311577e-08   1.6173075675826521e-08   1.5896129333987980e-08   1.9941784751592820e-08   1.9390297047967759e-08   2.3953972854786146e-08   2.3130385342136033e-08   2.8055366236635505e-08   2.6972615082422939e-08   3.2088201292733300e-08   3.0769252285407828e-08   3.5897257278201943e-08   3.4374278047566660e-08   3.9335779867032760e-08   3.7648994114551485e-08   4.2271076130393502e-08   4.0467354570291575e-08   4.4589618577290549e-08   4.2720834025410263e-08   4.6201668334699516e-08   4.4322680236038056e-08   4.7045833039006204e-08   4.5211448689390055e-08   4.7094706418548028e-08   4.5353774176511778e-08   4.6353010336035150e-08   4.4744638610391620e-08   4.3960304848594766e-08   4.3435258611716839e-08   3.7370045591977034e-08   3.4907030128994779e-08   3.4562198563525374e-08   3.3419817987525215e-08   3.1373186120743811e-08   3.0464147928291787e-08   2.7950663925648112e-08   2.7294982697789376e-08   2.4425724265719474e-08   2.4028969682043442e-08   2.0934127462433645e-08   2.0791656346684039e-08   1.7610052538825726e-08   1.7707498023319867e-08   1.4581157076792196e-08   1.4895048746162160e-08   1.1963754518769793e-08   1.2462369018965564e-08   9.8583677237407828e-09   1.0502901075362979e-08   8.3458671002957383e-09   9.0919023796018964e-09   7.4843580766087544e-09   8.2835643801796872e-09   7.3069427095045332e-09   8.1089319845944094e-09   7.8204427082096571e-09   8.5747085245199598e-09   9.0051330090655649e-09   9.6629947276821106e-09   1.0815495879276676e-08   1.1331972823958495e-08   1.3181966228093300e-08   1.3517509856323294e-08   1.6013600686597630e-08   1.6135618624049188e-08   1.9201567489095306e-08   1.9085681610095039e-08   2.2623322605533878e-08   2.2254313906639528e-08   2.6147311187283609e-08   2.5519716665799586e-08   2.9638013309398714e-08   2.8756353927980838e-08   3.2961140350180981e-08   3.1839773645971608e-08   3.5988784575488712e-08   3.4651388990806250e-08   3.8604332237980365e-08   3.7083039147632613e-08   4.0706975149010126e-08   3.9041160208066262e-08   4.2215705593629979e-08   4.0450416116703725e-08   4.3072751358778323e-08   4.1256663464273262e-08   4.3246387553781455e-08   4.1429135460931520e-08   4.2732833046568898e-08   4.0961745830183868e-08   4.1548243808599228e-08   3.9872031516185883e-08   3.8909716332943523e-08   3.8228035520333376e-08   3.1817664051988354e-08   2.9388855324406203e-08   2.9130553453384772e-08   2.7863155684353307e-08   2.6231189670269115e-08   2.5161459626493156e-08   2.3256897875660611e-08   2.2411524389368439e-08   2.0320945700592001e-08   1.9712939695862709e-08   1.7536308487666135e-08   1.7169225803347414e-08   1.5010045344102517e-08   1.4878060153237963e-08   1.2839224212959323e-08   1.2927488794303177e-08   1.1107230040139464e-08   1.1392469422654174e-08   9.8805844871510388e-09   1.0331979346996764e-08   9.2063987756461099e-09   9.7867551774510945e-09   9.1105646937007118e-09   9.7777341601520840e-09   9.5967578045339494e-09   1.0305252914542376e-08   1.0646293263857345e-08   1.1349034849618201e-08   1.2218840592869646e-08   1.2868967971405065e-08   1.4253970162655360e-08   1.4806644090507178e-08   1.6673471935121556e-08   1.7087600780816764e-08   1.9384357232191135e-08   1.9624180171208538e-08   2.2282428042690356e-08   2.2318894822428932e-08   2.5256276628824339e-08   2.5068171431909844e-08   2.8191561858865366e-08   2.7766328669302820e-08   3.0975398551861572e-08   3.0309636640213820e-08   3.3500692907699417e-08   3.2600302707878428e-08   3.5670261604729089e-08   3.4550231840049358e-08   3.7400585231537212e-08   3.6084419210749585e-08   3.8625068396446775e-08   3.7143847864933803e-08   3.9296703737388158e-08   3.7687783133148001e-08   3.9390039700230451e-08   3.7695374076044733e-08   3.8902242423703593e-08   3.7166481538443308e-08   3.7852979769962873e-08   3.6121702088762371e-08   3.6275152854132964e-08   3.4600490716551932e-08   3.3478654375562690e-08   3.2686008983222301e-08   2.6163275826284421e-08   2.3841696321918658e-08   2.3682688483641464e-08   2.2349046917033469e-08   2.1159479120713198e-08   1.9983757025486766e-08   1.8716870145670638e-08   1.7730883527317196e-08   1.6447648591733302e-08   1.5670418300752096e-08   1.4439034817439688e-08   1.3881293322936247e-08   1.2768233829357036e-08   1.2432153201942092e-08   1.1499456303211286e-08   1.1378659441360478e-08   1.0681448829521456e-08   1.0761291566389774e-08   1.0345630052532717e-08   1.0603772187736145e-08   1.0504890182529740e-08   1.0912151134304039e-08   1.1153098560889884e-08   1.1674574000129509e-08   1.2265339430899037e-08   1.2861739200781781e-08   1.3798868084226299e-08   1.4428024508091869e-08   1.5694751395433714e-08   1.6313239724320752e-08   1.7880130079083549e-08   1.8444938476237579e-08   2.0271015895514044e-08   2.0741200613640617e-08   2.2775516382985679e-08   2.3113778522252179e-08   2.5297363267151476e-08   2.5471486612490583e-08   2.7739609143054332e-08   2.7723703898535993e-08   3.0008350820219496e-08   2.9783855298050781e-08   3.2016337211896083e-08   3.1572738248473287e-08   3.3686325000972118e-08   3.3021567402032344e-08   3.4954056433843156e-08   3.4074621278760092e-08   3.5770749783610646e-08   3.4691390253462177e-08   3.6105011859091743e-08   3.4848144131897491e-08   3.5944096662790746e-08   3.4538858184854495e-08   3.5294430099841940e-08   3.3775456682880135e-08   3.4181258089499906e-08   3.2587350862539472e-08   3.2647346137583170e-08   3.1020321439289956e-08   3.0743050383594350e-08   2.9133967514534760e-08   2.7876980590109030e-08   2.7023310088228791e-08   2.0625119830780197e-08   1.8478984058122413e-08   1.8428108055732643e-08   1.7089627234892635e-08   1.6353168115113380e-08   1.5130099048024077e-08   1.4505482896735682e-08   1.3432981740854435e-08   1.2955156233942805e-08   1.2056881084570910e-08   1.1761742909648506e-08   1.1054408452669113e-08   1.0971089790797647e-08   1.0463988069572143e-08   1.0613579600220563e-08   1.0308276577233840e-08   1.0702948593680344e-08   1.0593248457415615e-08   1.1235757377960432e-08   1.1307951983988120e-08   1.2191525061949204e-08   1.2424923769239604e-08   1.3533517931400154e-08   1.3901242121975045e-08   1.5210161525826980e-08   1.5680176093821596e-08   1.7157022025817289e-08   1.7693365442127193e-08   1.9299281149327988e-08   1.9863447230155075e-08   2.1554609728116464e-08   2.2107028071977141e-08   2.3836329727567667e-08   2.4337887905394536e-08   2.6056743347531431e-08   2.6470292311701115e-08   2.8130501446673963e-08   2.8422286231198033e-08   2.9977882127863132e-08   3.0118842654283522e-08   3.1527853982322200e-08   3.1494745485746039e-08   3.2720807095105171e-08   3.2497096074224512e-08   3.3510848116706244e-08   3.3087347451686551e-08   3.3867572804323850e-08   3.3242788516747240e-08   3.3777249178406045e-08   3.2957421397743134e-08   3.3243364537047362e-08   3.2242197944654174e-08   3.2286506317750770e-08   3.1124604507271868e-08   3.0943555262778071e-08   2.9647606998067877e-08   2.9266144590598138e-08   2.7867991609153140e-08   2.7318391466653042e-08   2.5854212064109537e-08   2.5166442345363083e-08   2.3683242232310521e-08   2.2319669313451862e-08   2.1457972135946198e-08   1.5416573154689701e-08   1.3506914930985981e-08   1.3568985633970696e-08   1.2287167676481657e-08   1.1997092498336776e-08   1.0787123446653366e-08   1.0784771984147688e-08   9.6830570195948563e-09   9.9779329704169179e-09   9.0112707527316828e-09   9.6075715485856128e-09   8.7973098881409800e-09   9.6878967160703630e-09   9.0493203982424150e-09   1.0215815042863026e-08   9.7575927430583256e-09   1.1171038040593717e-08   1.0894900471665010e-08   1.2516857276645955e-08   1.2417538183333915e-08   1.4201553950137394e-08   1.4266996351170005e-08   1.6160386392627460e-08   1.6372207199946262e-08   1.8318077996048298e-08   1.8652274489955384e-08   2.0591709635573554e-08   2.1019581596662179e-08   2.2893905449058166e-08   2.3383158028193583e-08   2.5136189659011219e-08   2.5652174838993301e-08   2.7232385569954920e-08   2.7739434588652012e-08   2.9101926261950403e-08   2.9564721769078246e-08   3.0672949928588819e-08   3.1057885018453929e-08   3.1885061156810892e-08   3.2161532769462534e-08   3.2691652399104197e-08   3.2833238865898115e-08   3.3061696917295545e-08   3.3047173540016390e-08   3.2980944857779954e-08   3.2795097241911390e-08   3.2452476855809206e-08   3.2086679241442329e-08   3.1496593379207823e-08   3.0949128672448739e-08   3.0150041369350548e-08   2.9426151659445183e-08   2.8464601001979690e-08   2.7576273317241644e-08   2.6505072565541844e-08   2.5470587330057364e-08   2.4346690050398209e-08   2.3190019872751846e-08   2.2071977993968878e-08   2.0822260862688971e-08   1.9760142769384509e-08   1.8458123550100692e-08   1.7019992910275270e-08   1.6204023079975234e-08   1.0738113190202518e-08   9.1166107038012173e-09   9.2922743074708202e-09   8.1263242756465242e-09   8.2587841919383726e-09   7.1218286428812034e-09   7.6978422521833191e-09   6.6252929236779272e-09   7.6305314362718435e-09   6.6506908458892236e-09   8.0594533640638813e-09   7.1968005353870620e-09   8.9681074807881074e-09   8.2425839965743815e-09   1.0321568657530972e-08   9.7478393536049242e-09   1.2067824144330357e-08   1.1654717494942368e-08   1.4139768740245876e-08   1.3889940883800654e-08   1.6457781729628920e-08   1.6367616939911120e-08   1.8932785811802226e-08   1.8992536865551494e-08   2.1469669816078926e-08   2.1663833128788383e-08   2.3970943342368317e-08   2.4278854893675113e-08   2.6340482779194361e-08   2.6737112280961665e-08   2.8487224750129428e-08   2.8944137758761597e-08   3.0328665111712246e-08   3.0815116212433222e-08   3.1794029128776179e-08   3.2278144176164376e-08   3.2826991119309740e-08   3.3276992992355662e-08   3.3387839214004753e-08   3.3773269747605246e-08   3.3455002237133224e-08   3.3747892994639712e-08   3.3025880239889738e-08   3.3201826609502925e-08   3.2116946892322044e-08   3.2156043629311358e-08   3.0763119628677737e-08   3.0650721450588230e-08   2.9016420925711301e-08   2.8743699169106792e-08   2.6943980213853955e-08   2.6508255967297388e-08   2.4625449668674478e-08   2.4030295292834314e-08   2.2149926316883777e-08   2.1405042661218812e-08   1.9612460050684160e-08   1.8733386738322863e-08   1.7110169409053154e-08   1.6118045501852007e-08   1.4732023108677093e-08   1.3659571179744632e-08   1.2181450660631928e-08   1.1463430177283651e-08   6.7697147993328562e-09   5.4768105639493191e-09   5.7624917681671000e-09   4.7670622491685013e-09   5.2820213212373766e-09   4.2751479622204936e-09   5.3634140358797890e-09   4.3772644838604200e-09   6.0032486334253642e-09   5.0659097236057915e-09   7.1769706462608236e-09   6.3144315660081193e-09   8.8394686201027068e-09   8.0748225764742944e-09   1.0926852087801124e-08   1.0279430084334315e-08   1.3358905976375428e-08   1.2843534961686976e-08   1.6042171450737655e-08   1.5668605255499140e-08   1.8873536103560007e-08   1.8646081626611830e-08   2.1744195637702382e-08   2.1661548135257312e-08   2.4543834606145891e-08   2.4599128268415267e-08   2.7164865390225457e-08   2.7345937355834794e-08   2.9506562434372746e-08   2.9796420253839332e-08   3.1478932838563880e-08   3.1856407551192375e-08   3.3006174578706496e-08   3.3446734374930759e-08   3.4029589496737184e-08   3.4506282697039435e-08   3.4509839173376912e-08   3.4994330214142702e-08   3.4428457063811808e-08   3.4892115533235893e-08   3.3788558858524574e-08   3.4203559522549456e-08   3.2614723813129778e-08   3.2955115116307907e-08   3.0952051560103155e-08   3.1194751344598572e-08   2.8864430405414950e-08   2.8990110597123862e-08   2.6432083107083386e-08   2.6425909838735792e-08   2.3748483511024033e-08   2.3600685465043461e-08   2.0916761154895864e-08   2.0623006676852746e-08   1.8045728537829414e-08   1.7607303126087095e-08   1.5245653425817559e-08   1.4669470729846814e-08   1.2623823610497984e-08   1.1922455636544428e-08   1.0275319740463759e-08   9.4720672557283162e-09   7.9899105205651861e-09   7.4183996914712342e-09   3.6639911248280596e-09   2.7274043164270166e-09   3.1154025574845620e-09   2.3385229614968800e-09   3.1812932579251927e-09   2.3565365031970245e-09   3.8712701582320763e-09   3.0254156702521040e-09   5.1586801860211653e-09   4.3178714894829682e-09   6.9940912311564300e-09   6.1841433889892768e-09   9.3069737942944656e-09   8.5525076183619926e-09   1.2008448909452646e-08   1.1331956217251400e-08   1.4994704705382845e-08   1.4415683795412574e-08   1.8150985484277515e-08   1.7685191365194279e-08   2.1356001169451224e-08   2.1014840040842028e-08   2.4486587964131252e-08   2.4276678961777132e-08   2.7422441143934523e-08   2.7345362026150535e-08   3.0050738087519598e-08   3.0102964599760793e-08   3.2270473864548052e-08   3.2443515137667818e-08   3.3996342757973447e-08   3.4277067571367869e-08   3.5162016557218910e-08   3.5533157945164108e-08   3.5722693651432929e-08   3.6163512448186118e-08   3.5656820979722798e-08   3.6143902758879063e-08   3.4966922683905777e-08   3.5475077395488517e-08   3.3679503629554371e-08   3.4182733277575159e-08   3.1844031487111056e-08   3.2316528590722338e-08   2.9531036426839440e-08   2.9948174882033706e-08   2.6829401308107312e-08   2.7168681686536129e-08   2.3842946260863476e-08   2.4084859526519119e-08   2.0686438599117251e-08   2.0815215599559411e-08   1.7481180984995282e-08   1.7485399838019351e-08   1.4350345566568234e-08   1.4223376717157640e-08   1.1414213443693054e-08   1.1154511962729898e-08   8.7854173747853061e-09   8.3967822931210063e-09   6.5612928645696506e-09   6.0565718177155601e-09   4.6064286733363402e-09   4.2243964726855641e-09   1.5403613194607135e-09   9.7406566259931254e-10   1.4528128791168386e-09   9.3407063991070380e-10   2.0373998825756463e-09   1.4397698699941875e-09   3.2788073011379083e-09   2.6217375725874228e-09   5.1293239930212549e-09   4.4353532620007278e-09   7.5178762496515611e-09   6.8109630565724227e-09   1.0352684599694650e-08   9.6572941305693292e-09   1.3524816959663469e-08   1.2864976724612649e-08   1.6912376101372232e-08   1.6310751067426559e-08   2.0385184518127618e-08   1.9862205029568241e-08   2.3809787266390877e-08   2.3382863166067398e-08   2.7054580665280613e-08   2.6737431747814084e-08   2.9994869806880164e-08   2.9796998269328311e-08   3.2517660552296112e-08   3.2443985660369803e-08   3.45260018