<?xml version="1.0"?>
<VTKFile type="UnstructuredGrid"  version="0.1"  >
<UnstructuredGrid>
<Piece  NumberOfPoints="81" NumberOfCells="128">
<Points>
<DataArray  type="Float64"  NumberOfComponents="3"  format="ascii">0 0 0  0.125 0 0  0.25 0 0  0.375 0 0  0.5 0 0  0.625 0 0  0.75 0 0  0.875 0 0  1 0 0  0 0.125 0  0.125 0.125 0  0.25 0.125 0  0.375 0.125 0  0.5 0.125 0  0.625 0.125 0  0.75 0.125 0  0.875 0.125 0  1 0.125 0  0 0.25 0  0.125 0.25 0  0.25 0.25 0  0.375 0.25 0  0.5 0.25 0  0.625 0.25 0  0.75 0.25 0  0.875 0.25 0  1 0.25 0  0 0.375 0  0.125 0.375 0  0.25 0.375 0  0.375 0.375 0  0.5 0.375 0  0.625 0.375 0  0.75 0.375 0  0.875 0.375 0  1 0.375 0  0 0.5 0  0.125 0.5 0  0.25 0.5 0  0.375 0.5 0  0.5 0.5 0  0.625 0.5 0  0.75 0.5 0  0.875 0.5 0  1 0.5 0  0 0.625 0  0.125 0.625 0  0.25 0.625 0  0.375 0.625 0  0.5 0.625 0  0.625 0.625 0  0.75 0.625 0  0.875 0.625 0  1 0.625 0  0 0.75 0  0.125 0.75 0  0.25 0.75 0  0.375 0.75 0  0.5 0.75 0  0.625 0.75 0  0.75 0.75 0  0.875 0.75 0  1 0.75 0  0 0.875 0  0.125 0.875 0  0.25 0.875 0  0.375 0.875 0  0.5 0.875 0  0.625 0.875 0  0.75 0.875 0  0.875 0.875 0  1 0.875 0  0 1 0  0.125 1 0  0.25 1 0  0.375 1 0  0.5 1 0  0.625 1 0  0.75 1 0  0.875 1 0  1 1 0  </DataArray>
</Points>
<Cells>
<DataArray  type="UInt32"  Name="connectivity"  format="ascii">0 1 10  0 9 10  1 2 11  1 10 11  2 3 12  2 11 12  3 4 13  3 12 13  4 5 14  4 13 14  5 6 15  5 14 15  6 7 16  6 15 16  7 8 17  7 16 17  9 10 19  9 18 19  10 11 20  10 19 20  11 12 21  11 20 21  12 13 22  12 21 22  13 14 23  13 22 23  14 15 24  14 23 24  15 16 25  15 24 25  16 17 26  16 25 26  18 19 28  18 27 28  19 20 29  19 28 29  20 21 30  20 29 30  21 22 31  21 30 31  22 23 32  22 31 32  23 24 33  23 32 33  24 25 34  24 33 34  25 26 35  25 34 35  27 28 37  27 36 37  28 29 38  28 37 38  29 30 39  29 38 39  30 31 40  30 39 40  31 32 41  31 40 41  32 33 42  32 41 42  33 34 43  33 42 43  34 35 44  34 43 44  36 37 46  36 45 46  37 38 47  37 46 47  38 39 48  38 47 48  39 40 49  39 48 49  40 41 50  40 49 50  41 42 51  41 50 51  42 43 52  42 51 52  43 44 53  43 52 53  45 46 55  45 54 55  46 47 56  46 55 56  47 48 57  47 56 57  48 49 58  48 57 58  49 50 59  49 58 59  50 51 60  50 59 60  51 52 61  51 60 61  52 53 62  52 61 62  54 55 64  54 63 64  55 56 65  55 64 65  56 57 66  56 65 66  57 58 67  57 66 67  58 59 68  58 67 68  59 60 69  59 68 69  60 61 70  60 69 70  61 62 71  61 70 71  63 64 73  63 72 73  64 65 74  64 73 74  65 66 75  65 74 75  66 67 76  66 75 76  67 68 77  67 76 77  68 69 78  68 77 78  69 70 79  69 78 79  70 71 80  70 79 80  </DataArray>
<DataArray  type="UInt32"  Name="offsets"  format="ascii">3 6 9 12 15 18 21 24 27 30 33 36 39 42 45 48 51 54 57 60 63 66 69 72 75 78 81 84 87 90 93 96 99 102 105 108 111 114 117 120 123 126 129 132 135 138 141 144 147 150 153 156 159 162 165 168 171 174 177 180 183 186 189 192 195 198 201 204 207 210 213 216 219 222 225 228 231 234 237 240 243 246 249 252 255 258 261 264 267 270 273 276 279 282 285 288 291 294 297 300 303 306 309 312 315 318 321 324 327 330 333 336 339 342 345 348 351 354 357 360 363 366 369 372 375 378 381 384 </DataArray>
<DataArray  type="UInt8"  Name="types"  format="ascii">5 5 5 5 5 5 5 5 5 5 5 5 5 5 5 5 5 5 5 5 5 5 5 5 5 5 5 5 5 5 5 5 5 5 5 5 5 5 5 5 5 5 5 5 5 5 5 5 5 5 5 5 5 5 5 5 5 5 5 5 5 5 5 5 5 5 5 5 5 5 5 5 5 5 5 5 5 5 5 5 5 5 5 5 5 5 5 5 5 5 5 5 5 5 5 5 5 5 5 5 5 5 5 5 5 5 5 5 5 5 5 5 5 5 5 5 5 5 5 5 5 5 5 5 5 5 5 5 </DataArray>
</Cells>
<CellData  Scalars="f_87503"> 
<DataArray  type="Float64"  Name="f_87503"  format="ascii">2.7620099056010379e-06   2.5082149128002012e-06   2.0045547392802134e-06   1.7744269447015604e-06   9.2817901818249174e-07   8.0709980724553591e-07   1.6333378283609630e-07   1.3777221575085319e-07   1.5788824524242804e-07   1.5555539229115049e-07   9.1551983657474692e-07   8.5147982990592716e-07   1.9920671873233184e-06   1.8183852908976322e-06   2.7561673814128194e-06   2.4268706669013783e-06   2.6305105786583357e-06   1.5228214293457370e-06   2.2111913035888357e-06   1.1511047402691779e-06   1.5592096311695465e-06   8.9093624706413490e-07   1.0188833135438572e-06   8.2672402066237167e-07   9.0441735923529183e-07   9.8876948521666268e-07   1.2848633921666732e-06   1.2849765203206786e-06   1.9360744033632581e-06   1.5395136237620338e-06   2.4156483873307249e-06   1.5140957123223529e-06   1.8146432523451013e-06   4.8138779953168899e-07   2.0524224572823886e-06   5.8642088865413260e-07   2.2150441325589452e-06   1.1476114478532654e-06   2.1346326286573662e-06   1.7790992786506943e-06   1.8544527532142369e-06   2.1054289481445392e-06   1.5408847560030740e-06   1.9389104866323041e-06   1.3738295503370572e-06   1.3746278694684644e-06   1.3652601135718115e-06   6.8356366460015685e-07   8.9867275147477839e-07   2.2891621703546669e-09   1.7324130257669818e-06   4.1739193013950100e-07   2.5857016390588720e-06   1.4381293530599554e-06   2.9009372246239727e-06   2.4620763289603204e-06   2.4915184029638534e-06   2.8889253056847361e-06   1.5983038774262583e-06   2.4701310903096416e-06   7.4154897810008469e-07   1.4500989115111334e-06   3.6702680715165387e-07   4.2816816835180341e-07   4.2824491564593628e-07   3.6579231611313155e-07   1.4501137053496839e-06   7.4163389456616650e-07   2.4701417197467545e-06   1.5983589319036302e-06   2.8889110537088359e-06   2.4915262045797216e-06   2.4620505625985200e-06   2.9009246249357237e-06   1.4381454179685290e-06   2.5857051159319502e-06   4.1747225433291599e-07   1.7324490840414441e-06   2.1939508872495267e-09   8.9744796761887215e-07   6.8228335398946247e-07   1.3627831402460992e-06   1.3746440338452111e-06   1.3739695495861776e-06   1.9388071778994114e-06   1.5408563711025928e-06   2.1052636173166650e-06   1.8543049011651385e-06   1.7789913381460394e-06   2.1344647017967957e-06   1.1476860581333779e-06   2.2149042443234246e-06   5.8658917102560858e-07   2.0522650402467979e-06   4.8008120031991276e-07   1.8128120366018922e-06   1.5116008949122754e-06   2.4122813643982054e-06   1.5395739645280544e-06   1.9361183963518967e-06   1.2848704493185702e-06   1.2848108809514467e-06   9.8862755956712929e-07   9.0426146019462205e-07   8.2669145273965222e-07   1.0187053608910978e-06   8.9103924665892311e-07   1.5589342437211611e-06   1.1510868077932455e-06   2.2106211880635845e-06   1.5208399036929855e-06   2.6289895593706994e-06   2.4237343912486809e-06   2.7561673814128215e-06   1.8188225485538068e-06   1.9922979346031568e-06   8.5200452955710889e-07   9.1589525715793315e-07   1.5603397132282290e-07   1.5833997805357118e-07   1.3812870147407601e-07   1.6380335872849837e-07   8.0710156206379685e-07   9.2857432242385583e-07   1.7738063411144084e-06   2.0048027165741155e-06   2.5065088781654686e-06   2.7620925488349295e-06   </DataArray> 
</CellData> 
</Piece>
</UnstructuredGrid>
</VTKFile>