<?xml version="1.0"?>
<VTKFile type="UnstructuredGrid"  version="0.1"  >
<UnstructuredGrid>
<Piece  NumberOfPoints="25" NumberOfCells="32">
<Points>
<DataArray  type="Float64"  NumberOfComponents="3"  format="ascii">0 0 0  0.25 0 0  0.5 0 0  0.75 0 0  1 0 0  0 0.25 0  0.25 0.25 0  0.5 0.25 0  0.75 0.25 0  1 0.25 0  0 0.5 0  0.25 0.5 0  0.5 0.5 0  0.75 0.5 0  1 0.5 0  0 0.75 0  0.25 0.75 0  0.5 0.75 0  0.75 0.75 0  1 0.75 0  0 1 0  0.25 1 0  0.5 1 0  0.75 1 0  1 1 0  </DataArray>
</Points>
<Cells>
<DataArray  type="UInt32"  Name="connectivity"  format="ascii">0 1 6  0 5 6  1 2 7  1 6 7  2 3 8  2 7 8  3 4 9  3 8 9  5 6 11  5 10 11  6 7 12  6 11 12  7 8 13  7 12 13  8 9 14  8 13 14  10 11 16  10 15 16  11 12 17  11 16 17  12 13 18  12 17 18  13 14 19  13 18 19  15 16 21  15 20 21  16 17 22  16 21 22  17 18 23  17 22 23  18 19 24  18 23 24  </DataArray>
<DataArray  type="UInt32"  Name="offsets"  format="ascii">3 6 9 12 15 18 21 24 27 30 33 36 39 42 45 48 51 54 57 60 63 66 69 72 75 78 81 84 87 90 93 96 </DataArray>
<DataArray  type="UInt8"  Name="types"  format="ascii">5 5 5 5 5 5 5 5 5 5 5 5 5 5 5 5 5 5 5 5 5 5 5 5 5 5 5 5 5 5 5 5 </DataArray>
</Cells>
<CellData  Scalars="f_47658"> 
<DataArray  type="Float64"  Name="f_47658"  format="ascii">1.6655042387245052e-04   6.8439363348527942e-05   5.4865968408427847e-05   2.9615312769151134e-05   3.8947354961974119e-05   4.0027034108391223e-05   1.5056797435344978e-04   8.7924227356232006e-05   1.4198978983883816e-04   9.2018707512281299e-08   1.5800027220083887e-04   7.3614499423524539e-05   8.1841033001490136e-05   1.4444719831050004e-04   7.4810252675221116e-05   7.0900527347064795e-05   7.0577084783934768e-05   7.5670588363699936e-05   1.4372719422908707e-04   8.1622573203697681e-05   7.3286840233563352e-05   1.5744439185957806e-04   5.3940326501510258e-08   1.4249371836985399e-04   8.8427843158530353e-05   1.5056797435345013e-04   3.9409000017709794e-05   3.8590635075793882e-05   2.9358129239568817e-05   5.4104873171397731e-05   6.9286667496102554e-05   1.6614483302931335e-04   </DataArray> 
</CellData> 
</Piece>
</UnstructuredGrid>
</VTKFile>