<?xml version="1.0"?>
<VTKFile type="UnstructuredGrid"  version="0.1"  >
<UnstructuredGrid>
<Piece  NumberOfPoints="16641" NumberOfCells="32768">
<Points>
<DataArray  type="Float64"  NumberOfComponents="3"  format="ascii">0 0 0  0.0078125 0 0  0.015625 0 0  0.0234375 0 0  0.03125 0 0  0.0390625 0 0  0.046875 0 0  0.0546875 0 0  0.0625 0 0  0.0703125 0 0  0.078125 0 0  0.0859375 0 0  0.09375 0 0  0.1015625 0 0  0.109375 0 0  0.1171875 0 0  0.125 0 0  0.1328125 0 0  0.140625 0 0  0.1484375 0 0  0.15625 0 0  0.1640625 0 0  0.171875 0 0  0.1796875 0 0  0.1875 0 0  0.1953125 0 0  0.203125 0 0  0.2109375 0 0  0.21875 0 0  0.2265625 0 0  0.234375 0 0  0.2421875 0 0  0.25 0 0  0.2578125 0 0  0.265625 0 0  0.2734375 0 0  0.28125 0 0  0.2890625 0 0  0.296875 0 0  0.3046875 0 0  0.3125 0 0  0.3203125 0 0  0.328125 0 0  0.3359375 0 0  0.34375 0 0  0.3515625 0 0  0.359375 0 0  0.3671875 0 0  0.375 0 0  0.3828125 0 0  0.390625 0 0  0.3984375 0 0  0.40625 0 0  0.4140625 0 0  0.421875 0 0  0.4296875 0 0  0.4375 0 0  0.4453125 0 0  0.453125 0 0  0.4609375 0 0  0.46875 0 0  0.4765625 0 0  0.484375 0 0  0.4921875 0 0  0.5 0 0  0.5078125 0 0  0.515625 0 0  0.5234375 0 0  0.53125 0 0  0.5390625 0 0  0.546875 0 0  0.5546875 0 0  0.5625 0 0  0.5703125 0 0  0.578125 0 0  0.5859375 0 0  0.59375 0 0  0.6015625 0 0  0.609375 0 0  0.6171875 0 0  0.625 0 0  0.6328125 0 0  0.640625 0 0  0.6484375 0 0  0.65625 0 0  0.6640625 0 0  0.671875 0 0  0.6796875 0 0  0.6875 0 0  0.6953125 0 0  0.703125 0 0  0.7109375 0 0  0.71875 0 0  0.7265625 0 0  0.734375 0 0  0.7421875 0 0  0.75 0 0  0.7578125 0 0  0.765625 0 0  0.7734375 0 0  0.78125 0 0  0.7890625 0 0  0.796875 0 0  0.8046875 0 0  0.8125 0 0  0.8203125 0 0  0.828125 0 0  0.8359375 0 0  0.84375 0 0  0.8515625 0 0  0.859375 0 0  0.8671875 0 0  0.875 0 0  0.8828125 0 0  0.890625 0 0  0.8984375 0 0  0.90625 0 0  0.9140625 0 0  0.921875 0 0  0.9296875 0 0  0.9375 0 0  0.9453125 0 0  0.953125 0 0  0.9609375 0 0  0.96875 0 0  0.9765625 0 0  0.984375 0 0  0.9921875 0 0  1 0 0  0 0.0078125 0  0.0078125 0.0078125 0  0.015625 0.0078125 0  0.0234375 0.0078125 0  0.03125 0.0078125 0  0.0390625 0.0078125 0  0.046875 0.0078125 0  0.0546875 0.0078125 0  0.0625 0.0078125 0  0.0703125 0.0078125 0  0.078125 0.0078125 0  0.0859375 0.0078125 0  0.09375 0.0078125 0  0.1015625 0.0078125 0  0.109375 0.0078125 0  0.1171875 0.0078125 0  0.125 0.0078125 0  0.1328125 0.0078125 0  0.140625 0.0078125 0  0.1484375 0.0078125 0  0.15625 0.0078125 0  0.1640625 0.0078125 0  0.171875 0.0078125 0  0.1796875 0.0078125 0  0.1875 0.0078125 0  0.1953125 0.0078125 0  0.203125 0.0078125 0  0.2109375 0.0078125 0  0.21875 0.0078125 0  0.2265625 0.0078125 0  0.234375 0.0078125 0  0.2421875 0.0078125 0  0.25 0.0078125 0  0.2578125 0.0078125 0  0.265625 0.0078125 0  0.2734375 0.0078125 0  0.28125 0.0078125 0  0.2890625 0.0078125 0  0.296875 0.0078125 0  0.3046875 0.0078125 0  0.3125 0.0078125 0  0.3203125 0.0078125 0  0.328125 0.0078125 0  0.3359375 0.0078125 0  0.34375 0.0078125 0  0.3515625 0.0078125 0  0.359375 0.0078125 0  0.3671875 0.0078125 0  0.375 0.0078125 0  0.3828125 0.0078125 0  0.390625 0.0078125 0  0.3984375 0.0078125 0  0.40625 0.0078125 0  0.4140625 0.0078125 0  0.421875 0.0078125 0  0.4296875 0.0078125 0  0.4375 0.0078125 0  0.4453125 0.0078125 0  0.453125 0.0078125 0  0.4609375 0.0078125 0  0.46875 0.0078125 0  0.4765625 0.0078125 0  0.484375 0.0078125 0  0.4921875 0.0078125 0  0.5 0.0078125 0  0.5078125 0.0078125 0  0.515625 0.0078125 0  0.5234375 0.0078125 0  0.53125 0.0078125 0  0.5390625 0.0078125 0  0.546875 0.0078125 0  0.5546875 0.0078125 0  0.5625 0.0078125 0  0.5703125 0.0078125 0  0.578125 0.0078125 0  0.5859375 0.0078125 0  0.59375 0.0078125 0  0.6015625 0.0078125 0  0.609375 0.0078125 0  0.6171875 0.0078125 0  0.625 0.0078125 0  0.6328125 0.0078125 0  0.640625 0.0078125 0  0.6484375 0.0078125 0  0.65625 0.0078125 0  0.6640625 0.0078125 0  0.671875 0.0078125 0  0.6796875 0.0078125 0  0.6875 0.0078125 0  0.6953125 0.0078125 0  0.703125 0.0078125 0  0.7109375 0.0078125 0  0.71875 0.0078125 0  0.7265625 0.0078125 0  0.734375 0.0078125 0  0.7421875 0.0078125 0  0.75 0.0078125 0  0.7578125 0.0078125 0  0.765625 0.0078125 0  0.7734375 0.0078125 0  0.78125 0.0078125 0  0.7890625 0.0078125 0  0.796875 0.0078125 0  0.8046875 0.0078125 0  0.8125 0.0078125 0  0.8203125 0.0078125 0  0.828125 0.0078125 0  0.8359375 0.0078125 0  0.84375 0.0078125 0  0.8515625 0.0078125 0  0.859375 0.0078125 0  0.8671875 0.0078125 0  0.875 0.0078125 0  0.8828125 0.0078125 0  0.890625 0.0078125 0  0.8984375 0.0078125 0  0.90625 0.0078125 0  0.9140625 0.0078125 0  0.921875 0.0078125 0  0.9296875 0.0078125 0  0.9375 0.0078125 0  0.9453125 0.0078125 0  0.953125 0.0078125 0  0.9609375 0.0078125 0  0.96875 0.0078125 0  0.9765625 0.0078125 0  0.984375 0.0078125 0  0.9921875 0.0078125 0  1 0.0078125 0  0 0.015625 0  0.0078125 0.015625 0  0.015625 0.015625 0  0.0234375 0.015625 0  0.03125 0.015625 0  0.0390625 0.015625 0  0.046875 0.015625 0  0.0546875 0.015625 0  0.0625 0.015625 0  0.0703125 0.015625 0  0.078125 0.015625 0  0.0859375 0.015625 0  0.09375 0.015625 0  0.1015625 0.015625 0  0.109375 0.015625 0  0.1171875 0.015625 0  0.125 0.015625 0  0.1328125 0.015625 0  0.140625 0.015625 0  0.1484375 0.015625 0  0.15625 0.015625 0  0.1640625 0.015625 0  0.171875 0.015625 0  0.1796875 0.015625 0  0.1875 0.015625 0  0.1953125 0.015625 0  0.203125 0.015625 0  0.2109375 0.015625 0  0.21875 0.015625 0  0.2265625 0.015625 0  0.234375 0.015625 0  0.2421875 0.015625 0  0.25 0.015625 0  0.2578125 0.015625 0  0.265625 0.015625 0  0.2734375 0.015625 0  0.28125 0.015625 0  0.2890625 0.015625 0  0.296875 0.015625 0  0.3046875 0.015625 0  0.3125 0.015625 0  0.3203125 0.015625 0  0.328125 0.015625 0  0.3359375 0.015625 0  0.34375 0.015625 0  0.3515625 0.015625 0  0.359375 0.015625 0  0.3671875 0.015625 0  0.375 0.015625 0  0.3828125 0.015625 0  0.390625 0.015625 0  0.3984375 0.015625 0  0.40625 0.015625 0  0.4140625 0.015625 0  0.421875 0.015625 0  0.4296875 0.015625 0  0.4375 0.015625 0  0.4453125 0.015625 0  0.453125 0.015625 0  0.4609375 0.015625 0  0.46875 0.015625 0  0.4765625 0.015625 0  0.484375 0.015625 0  0.4921875 0.015625 0  0.5 0.015625 0  0.5078125 0.015625 0  0.515625 0.015625 0  0.5234375 0.015625 0  0.53125 0.015625 0  0.5390625 0.015625 0  0.546875 0.015625 0  0.5546875 0.015625 0  0.5625 0.015625 0  0.5703125 0.015625 0  0.578125 0.015625 0  0.5859375 0.015625 0  0.59375 0.015625 0  0.6015625 0.015625 0  0.609375 0.015625 0  0.6171875 0.015625 0  0.625 0.015625 0  0.6328125 0.015625 0  0.640625 0.015625 0  0.6484375 0.015625 0  0.65625 0.015625 0  0.6640625 0.015625 0  0.671875 0.015625 0  0.6796875 0.015625 0  0.6875 0.015625 0  0.6953125 0.015625 0  0.703125 0.015625 0  0.7109375 0.015625 0  0.71875 0.015625 0  0.7265625 0.015625 0  0.734375 0.015625 0  0.7421875 0.015625 0  0.75 0.015625 0  0.7578125 0.015625 0  0.765625 0.015625 0  0.7734375 0.015625 0  0.78125 0.015625 0  0.7890625 0.015625 0  0.796875 0.015625 0  0.8046875 0.015625 0  0.8125 0.015625 0  0.8203125 0.015625 0  0.828125 0.015625 0  0.8359375 0.015625 0  0.84375 0.015625 0  0.8515625 0.015625 0  0.859375 0.015625 0  0.8671875 0.015625 0  0.875 0.015625 0  0.8828125 0.015625 0  0.890625 0.015625 0  0.8984375 0.015625 0  0.90625 0.015625 0  0.9140625 0.015625 0  0.921875 0.015625 0  0.9296875 0.015625 0  0.9375 0.015625 0  0.9453125 0.015625 0  0.953125 0.015625 0  0.9609375 0.015625 0  0.96875 0.015625 0  0.9765625 0.015625 0  0.984375 0.015625 0  0.9921875 0.015625 0  1 0.015625 0  0 0.0234375 0  0.0078125 0.0234375 0  0.015625 0.0234375 0  0.0234375 0.0234375 0  0.03125 0.0234375 0  0.0390625 0.0234375 0  0.046875 0.0234375 0  0.0546875 0.0234375 0  0.0625 0.0234375 0  0.0703125 0.0234375 0  0.078125 0.0234375 0  0.0859375 0.0234375 0  0.09375 0.0234375 0  0.1015625 0.0234375 0  0.109375 0.0234375 0  0.1171875 0.0234375 0  0.125 0.0234375 0  0.1328125 0.0234375 0  0.140625 0.0234375 0  0.1484375 0.0234375 0  0.15625 0.0234375 0  0.1640625 0.0234375 0  0.171875 0.0234375 0  0.1796875 0.0234375 0  0.1875 0.0234375 0  0.1953125 0.0234375 0  0.203125 0.0234375 0  0.2109375 0.0234375 0  0.21875 0.0234375 0  0.2265625 0.0234375 0  0.234375 0.0234375 0  0.2421875 0.0234375 0  0.25 0.0234375 0  0.2578125 0.0234375 0  0.265625 0.0234375 0  0.2734375 0.0234375 0  0.28125 0.0234375 0  0.2890625 0.0234375 0  0.296875 0.0234375 0  0.3046875 0.0234375 0  0.3125 0.0234375 0  0.3203125 0.0234375 0  0.328125 0.0234375 0  0.3359375 0.0234375 0  0.34375 0.0234375 0  0.3515625 0.0234375 0  0.359375 0.0234375 0  0.3671875 0.0234375 0  0.375 0.0234375 0  0.3828125 0.0234375 0  0.390625 0.0234375 0  0.3984375 0.0234375 0  0.40625 0.0234375 0  0.4140625 0.0234375 0  0.421875 0.0234375 0  0.4296875 0.0234375 0  0.4375 0.0234375 0  0.4453125 0.0234375 0  0.453125 0.0234375 0  0.4609375 0.0234375 0  0.46875 0.0234375 0  0.4765625 0.0234375 0  0.484375 0.0234375 0  0.4921875 0.0234375 0  0.5 0.0234375 0  0.5078125 0.0234375 0  0.515625 0.0234375 0  0.5234375 0.0234375 0  0.53125 0.0234375 0  0.5390625 0.0234375 0  0.546875 0.0234375 0  0.5546875 0.0234375 0  0.5625 0.0234375 0  0.5703125 0.0234375 0  0.578125 0.0234375 0  0.5859375 0.0234375 0  0.59375 0.0234375 0  0.6015625 0.0234375 0  0.609375 0.0234375 0  0.6171875 0.0234375 0  0.625 0.0234375 0  0.6328125 0.0234375 0  0.640625 0.0234375 0  0.6484375 0.0234375 0  0.65625 0.0234375 0  0.6640625 0.0234375 0  0.671875 0.0234375 0  0.6796875 0.0234375 0  0.6875 0.0234375 0  0.6953125 0.0234375 0  0.703125 0.0234375 0  0.7109375 0.0234375 0  0.71875 0.0234375 0  0.7265625 0.0234375 0  0.734375 0.0234375 0  0.7421875 0.0234375 0  0.75 0.0234375 0  0.7578125 0.0234375 0  0.765625 0.0234375 0  0.7734375 0.0234375 0  0.78125 0.0234375 0  0.7890625 0.0234375 0  0.796875 0.0234375 0  0.8046875 0.0234375 0  0.8125 0.0234375 0  0.8203125 0.0234375 0  0.828125 0.0234375 0  0.8359375 0.0234375 0  0.84375 0.0234375 0  0.8515625 0.0234375 0  0.859375 0.0234375 0  0.8671
[...]
<CellData  Scalars="f_16763"> 
<DataArray  type="Float64"  Name="f_16763"  format="ascii">2.5578709788017404e-14   2.5680014038199152e-14   6.2936062448245089e-14   8.3592190639859946e-14   1.1927270706076317e-13   1.7799819016151422e-13   1.9442522123845749e-13   3.1054431726448381e-13   2.8819532712384893e-13   4.8086415721160292e-13   4.0034636791298796e-13   6.8851350652070260e-13   5.3060163141019073e-13   9.3296904540106287e-13   6.7864357298765755e-13   1.2136267595428545e-12   8.4411361290089956e-13   1.5298010504070753e-12   1.0266123440375841e-12   1.8807246233525344e-12   1.2257000501425315e-12   2.2655490600864700e-12   1.4408974676283461e-12   2.6833459603789570e-12   1.6716867440493381e-12   3.1331085521202103e-12   1.9175125592235245e-12   3.6137536894084645e-12   2.1777833844106803e-12   4.1241241761416171e-12   2.4518728607918052e-12   4.6629913676265707e-12   2.7391212831287504e-12   5.2290580130271431e-12   3.0388371778410528e-12   5.8209613100476682e-12   3.3502989658494887e-12   6.4372761490596762e-12   3.6727567035914545e-12   7.0765185275071608e-12   4.0054338949755200e-12   7.7371491197611957e-12   4.3475293687844867e-12   8.4175769876479628e-12   4.6982192159118023e-12   9.1161634201026458e-12   5.0566587811734340e-12   9.8312258897845908e-12   5.4219847046181205e-12   1.0561042116150318e-11   5.7933170074086945e-12   1.1303854224065987e-11   6.1697612166170940e-12   1.2057872987662244e-11   6.5504105246872115e-12   1.2821282148277732e-11   6.9343479777085664e-12   1.3592242797227149e-11   7.3206486874267529e-12   1.4368897811520773e-11   7.7083820621616584e-12   1.5149376332784275e-11   8.0966140507781169e-12   1.5931798278377807e-11   8.4844093946530385e-12   1.6714278873892087e-11   8.8708338820656814e-12   1.7494933196216108e-11   9.2549566002473484e-12   1.8271880716419343e-11   9.6358521787253347e-12   1.9043249832102797e-11   1.0012603019311470e-11   1.9807182376703120e-11   1.0384301507708710e-11   2.0561838097224818e-11   1.0750052199686845e-11   2.1305399088281564e-11   1.1108973979592755e-11   2.2036074171151912e-11   1.1460202182608463e-11   2.2752103210289288e-11   1.1802890678222338e-11   2.3451761352132573e-11   1.2136213908904072e-11   2.4133363181674933e-11   1.2459368878940281e-11   2.4795266782103452e-11   1.2771577089443486e-11   2.5435877690136362e-11   1.3072086412701858e-11   2.6053652737110539e-11   1.3360172905741917e-11   2.6647103765558088e-11   1.3635142553236032e-11   2.7214801215604260e-11   1.3896332940103234e-11   2.7755377567101331e-11   1.4143114846729212e-11   2.8267530634516007e-11   1.4374893765495375e-11   2.8750026703347901e-11   1.4591111332471243e-11   2.9201703502415727e-11   1.4791246672678067e-11   2.9621473002919554e-11   1.4974817655264577e-11   3.0008324039987924e-11   1.5141382054432703e-11   3.0361324748045834e-11   1.5290538614831455e-11   3.0679624805218082e-11   1.5421928018917467e-11   3.0962457481790771e-11   1.5535233751417240e-11   3.1209141487873287e-11   1.5630182863030026e-11   3.1419082612888624e-11   1.5706546626833584e-11   3.1591775158533502e-11   1.5764141090013589e-11   3.1726803155328195e-11   1.5802827516829342e-11   3.1823841365732738e-11   1.5822512722664648e-11   3.1882656067084579e-11   1.5823149298553867e-11   3.1903105614468924e-11   1.5804735726054263e-11   3.1885140781682297e-11   1.5767316378669845e-11   3.1828804880739229e-11   1.5710981417982736e-11   3.1734233654758689e-11   1.5635866574268669e-11   3.1601654954946863e-11   1.5542152820091122e-11   3.1431388188079043e-11   1.5430065934551953e-11   3.1223843548906830e-11   1.5299875958684226e-11   3.0979521031288876e-11   1.5151896545557289e-11   3.0699009223443130e-11   1.4986484204387128e-11   3.0382983890645101e-11   1.4804037441170050e-11   3.0032206346985974e-11   1.4604995799455588e-11   2.9647521621058487e-11   1.4389838800513911e-11   2.9229856420877993e-11   1.4159084788766055e-11   2.8780216900634993e-11   1.3913289682547196e-11   2.8299686237843696e-11   1.3653045635053542e-11   2.7789422023228741e-11   1.3378979607520586e-11   2.7250653472403638e-11   1.3091751858999307e-11   2.6684678464726131e-11   1.2792054355062308e-11   2.6092860416873393e-11   1.2480609101388290e-11   2.5476624997535821e-11   1.2158166404114585e-11   2.4837456694499230e-11   1.1825503061554715e-11   2.4176895237672712e-11   1.1483420493584805e-11   2.3496531889384992e-11   1.1132742809844027e-11   2.2798005612422693e-11   1.0774314824916315e-11   2.2082999120209336e-11   1.0409000022382700e-11   2.1353234824345543e-11   1.0037678474348073e-11   2.0610470684548251e-11   9.6612447210343791e-12   1.9856495973463952e-11   9.2806056151972351e-12   1.9093126966510334e-11   8.8966781370036611e-12   1.8322202565729429e-11   8.5103871840516109e-12   1.7545579869638424e-11   8.1226633426485756e-12   1.6765129698410864e-11   7.7344406447718226e-12   1.5982732086415927e-11   7.3466543170710256e-12   1.5200271751779521e-11   6.9602385257780213e-12   1.4419633554653709e-11   6.5761241252751652e-12   1.3642697954281717e-11   6.1952364131760252e-12   1.2871336476965966e-11   5.8184928987213087e-12   1.2107407203851650e-11   5.4468010898351656e-12   1.1352750291037898e-11   5.0810563035141064e-12   1.0609183532072545e-11   4.7221395050747628e-12   9.8784979731185183e-12   4.3709151817776499e-12   9.1624535916769427e-12   4.0282292553095771e-12   8.4627750494080731e-12   3.6949070392692109e-12   7.7811475287470801e-12   3.3717512458037188e-12   7.1192126645216814e-12   3.0595400474549403e-12   6.4785645800103364e-12   2.7590251995640361e-12   5.8607460387451833e-12   2.4709302284712190e-12   5.2672447225313618e-12   2.1959486924214534e-12   4.6994896469993409e-12   1.9347425219837337e-12   4.1588477278877171e-12   1.6879404479743924e-12   3.6466205118523656e-12   1.4561365271451717e-12   3.1640410885409863e-12   1.2398887780878723e-12   2.7122712048034431e-12   1.0397179432532600e-12   2.2923986071334362e-12   8.5610639931304217e-13   1.9054346467118385e-12   6.8949724462366546e-13   1.5523121941404221e-12   5.4029360504200387e-13   1.2338839279242416e-12   4.0885821560716959e-13   9.5092108789489349e-13   2.9551336160980103e-13   7.0411282396787684e-13   2.0054130371326245e-13   4.9406633150341013e-13   1.2418538358689957e-13   3.2130806083520619e-13   6.6652148358845521e-14   1.8628644840952331e-13   2.8115171917299848e-14   8.9376893686544325e-14   8.7222432076575483e-15   3.0890189202323971e-14   6.3156181515167162e-15   1.1086308757964206e-14   1.3517921598851764e-13   1.1489094080876000e-13   2.2962382938719529e-13   2.2981163010125781e-13   3.6207376234587808e-13   3.6237979767379202e-13   5.3219096657632932e-13   5.3253335229152655e-13   7.3954502394273572e-13   7.3984234367118211e-13   9.8362163577367360e-13   9.8379326950147446e-13   1.2638235864390155e-12   1.2637897712397051e-12   1.5794707639294072e-12   1.5791527515099004e-12   1.9298004794001222e-12   1.9291207388214402e-12   2.3139682969695559e-12   2.3128507100892191e-12   2.7310493524645638e-12   2.7294193849105349e-12   3.1800400939088390e-12   3.1778249432260729e-12   3.6598603778740798e-12   3.6569891046576679e-12   4.1693558675791680e-12   4.1657595161325543e-12   4.7073006906891669e-12   4.7029124034311355e-12   5.2724003237207913e-12   5.2671554526082234e-12   5.8632946776220487e-12   5.8571308939342888e-12   6.4785613641346327e-12   6.4714187672069146e-12   7.1167191256980636e-12   7.1085403510130694e-12   7.7762314156633017e-12   7.7669617413208866e-12   8.4555101150034087e-12   8.4450975665752966e-12   9.1529193750758257e-12   9.1413148275575640e-12   9.8667795748943699e-12   9.8539368515971142e-12   1.0595371382908320e-11   1.0581247349979829e-11   1.1336939912909573e-11   1.1321494569404492e-11   1.2089698964002001e-11   1.2072895526426124e-11   1.2851835333763972e-11   1.2833640314871774e-11   1.3621513195603527e-11   1.3601896476552405e-11   1.4396878528488803e-11   1.4375813424550877e-11   1.5176063589475974e-11   1.5153526908359246e-11   1.5957191418196965e-11   1.5933163510866191e-11   1.6738380362411531e-11   1.6712845165977904e-11   1.7517748614048578e-11   1.7490693687008417e-11   1.8293418744940957e-11   1.8264835294122080e-11   1.9063522231991101e-11   1.9033405130944118e-11   1.9826203959219848e-11   1.9794551758725453e-11   2.0579626688302415e-11   2.0546441617578322e-11   2.1321975485488480e-11   2.1287263445377631e-11   2.2051462093546807e-11   2.2015232641543285e-11   2.2766329241308253e-11   2.2728595566483293e-11   2.3464854875610648e-11   2.3425633767258815e-11   2.4145356311152624e-11   2.4104668116584916e-11   2.4806194283608240e-11   2.4764062859756917e-11   2.5445776898515991e-11   2.5402229553384765e-11   2.6062563466248302e-11   2.6017630893086948e-11   2.6655068212568639e-11   2.6608784416567719e-11   2.7221863859355195e-11   2.7174266075033601e-11   2.7761585061149682e-11   2.7712713663591122e-11   2.8272931694873356e-11   2.8222830102350333e-11   2.8754671991209406e-11   2.8703386561660578e-11   2.9205645502254499e-11   2.9153225421552021e-11   2.9624765896144936e-11   2.9571263060787183e-11   3.0011023574502362e-11   2.9956492466937753e-11   3.0363488104045998e-11   3.0307985662602538e-11   3.0681310457500541e-11   3.0624895939974303e-11   3.0963725058961241e-11   3.0906459901208176e-11   3.1210051628746587e-11   3.1151999297042989e-11   3.1419696820449662e-11   3.1360922660842616e-11   3.1592155651808986e-11   3.1532726732291568e-11   3.1727012719507039e-11   3.1666997671406894e-11   3.1823943200909939e-11   3.1763412053648596e-11   3.1882713636052757e-11   3.1821737650297261e-11   3.1903182489775214e-11   3.1841833986986706e-11   3.1885300492467464e-11   3.1823652682304531e-11   3.1829110759649527e-11   3.1767237564073076e-11   3.1734748685328189e-11   3.1672724564632414e-11   3.1602441619792545e-11   3.1540341390815689e-11   3.1432508318315593e-11   3.1370406979101863e-11   3.1225358175086697e-11   3.1163330723708378e-11   3.0981490236301719e-11   3.0919611492960499e-11   3.0701491997627403e-11   3.0639836425183016e-11   3.0386037989566466e-11   3.0324679515867943e-11   3.0035888152163291e-11   2.9974899993573051e-11   2.9651886003978447e-11   2.9591340490970981e-11   2.9234956610637585e-11   2.9174925014256433e-11   2.8786104355543054e-11   2.8726656717818995e-11   2.8306410521247730e-11   2.8247615487627235e-11   2.7797030683908796e-11   2.7738955339787123e-11   2.7259191929821535e-11   2.7201901639852172e-11   2.6694189899369025e-11   2.6637748151727229e-11   2.6103385665962518e-11   2.6047853920717374e-11   2.5488202456416267e-11   2.5433639999115993e-11   2.4850122223867084e-11   2.4796586023292076e-11   2.4190682076894815e-11   2.4138226649960802e-11   2.3511470576150538e-11   2.3460147857534076e-11   2.2814123908868839e-11   2.2763983126408325e-11   2.2100321945732110e-11   2.2051409504292292e-11   2.1371784195263236e-11   2.1324143564666639e-11   2.0630265660768638e-11   2.0583937272979686e-11   1.9877552612248964e-11   1.9832573765046721e-11   1.9115458283505094e-11   1.9071863050940129e-11   1.8345818503346954e-11   1.8303637655318932e-11   1.7570487272873294e-11   1.7529748201617280e-11   1.6791332298155391e-11   1.6752058953662079e-11   1.6010230490354543e-11   1.5972443323171842e-11   1.5229063442926335e-11   1.5192779356348034e-11   1.4449712897523327e-11   1.4414945207985143e-11   1.3674056208775884e-11   1.3640814615527388e-11   1.2903961819941258e-11   1.2872252382838340e-11   1.2141284758542381e-11   1.2111109885666505e-11   1.1387862164201928e-11   1.1359220608282006e-11   1.0645508859030430e-11   1.0618395723295709e-11   9.9160129707457935e-12   9.8904197240126307e-12   9.2011316194783054e-12   9.1770461208221233e-12   8.5025866788725746e-12   8.4799932115599156e-12   7.8220606212705446e-12   7.8009399365318191e-12   7.1611924583108786e-12   7.1415218279884883e-12   6.5215737865601659e-12   6.5033270655208307e-12   5.9047449496428302e-12   5.8878926468133127e-12   5.3121913277643550e-12   5.2967006855474024e-12   4.7453397662873473e-12   4.7311748476229906e-12   4.2055551570534407e-12   4.1926769383649855e-12   3.6941371870942047e-12   3.6825036551459784e-12   3.2123172723602771e-12   3.2018835216086283e-12   2.7612556986475442e-12   2.7519740240893912e-12   2.3420389975556847e-12   2.3338589755635884e-12   1.9556775941871945e-12   1.9485461404206734e-12   1.6031037767285785e-12   1.5969651644164735e-12   1.2851700563337966e-12   1.2799658707047389e-12   1.0026480141459029e-12   9.9831700587854241e-13   7.5622777406200326e-13   7.5270555472134629e-13   5.4651830362735582e-13   5.4373679230309433e-13   3.7404884658498837e-13   3.7193531532308089e-13   2.3927195634425585e-13   2.3774740140913230e-13   1.4256888074174762e-13   1.4154519164776868e-13   8.4258516283271849e-14   8.3633355144299889e-14   6.4611726788561687e-14   6.4258898160903156e-14   6.2271833292562169e-14   8.3623867588281388e-14   3.3563790189179424e-13   2.7746800643230829e-13   4.6835773073863127e-13   4.6843281868574978e-13   6.3843787715924295e-13   6.3861339451926947e-13   8.4548379938667619e-13   8.4568821941116610e-13   1.0890022534490087e-12   1.0891654466756291e-12   1.3684101863961557e-12   1.3684645502183654e-12   1.6830382708612053e-12   1.6829186157034888e-12   2.0321327765372119e-12   2.0317760952086704e-12   2.4148571668076941e-12   2.4142024445731311e-12   2.8302938473599576e-12   2.8292819328886322e-12   3.2774461753198593e-12   3.2760197031947822e-12   3.7552407366179667e-12   3.7533440895532870e-12   4.2625298731380786e-12   4.2601091733337699e-12   4.7980944341633492e-12   4.7950975571475572e-12   5.3606467297047617e-12   5.3570233350229915e-12   5.9488336657574901e-12   5.9445352408865345e-12   6.5612400455593645e-12   6.5562199595875727e-12   7.1963920232076165e-12   7.1906055877158805e-12   7.8527606976329271e-12   7.8461652326612091e-12   8.5287658362597984e-12   8.5213207390426453e-12   9.2227797181538666e-12   9.2144465335287703e-12   9.9331310873764737e-12   9.9238735779938742e-12   1.0658109206342442e-11   1.0647893422099462e-11   1.1395968000784852e-11   1.1384762345742162e-11   1.2144930285622004e-11   1.2132705582281600e-11   1.2903192062410429e-11   1.2889921612344057e-11   1.3668926878617755e-11   1.3654586518673634e-11   1.4440290238899451e-11   1.4424858393075652e-11   1.5215424057097378e-11   1.5198881783044242e-11   1.5992461139685418e-11   1.5974792169898711e-11   1.6769529689348002e-11   1.6750720466766183e-11   1.7544757819030962e-11   1.7524797526467519e-11   1.8316278064682136e-11   1.8295158648590710e-11   1.9082231887093235e-11   1.9059948074587172e-11   1.9840774151163218e-11   1.9817323461147209e-11   2.0590077572089336e-11   2.0565460319572217e-11   2.1328337119421783e-11   2.1302556413551664e-11   2.2053774365878294e-11   2.2026836101451902e-11   2.2764641772035694e-11   2.2736554614804696e-11   2.3459226897362808e-11   2.3430002261892107e-11   2.4135856524775610e-11   2.4105508547295709e-11   2.4792900693379437e-11   2.4761446196203931e-11   2.5428776623198385e-11   2.5396235075177885e-11   2.6041952529341490e-11   2.6008345998006211e-11   2.6630951311722060e-11   2.6596304410641158e-11   2.7194354113543181e-11   2.7158693942896054e-11   2.7730803739275469e-11   2.7694159820735548e-11   2.8239007923590425e-11   2.8201412129409009e-11   2.8717742445069699e-11   2.8679228921852188e-11   2.9165854074491413e-11   2.9126459161383744e-11   2.9582263353285955e-11   2.9542025494570469e-11   2.9965967193685335e-11   2.9924926847188004e-11   3.0316041295333174e-11   3.0274240835166848e-11   3.0631642371076421e-11   3.0589125986748858e-11   3.0912010179062802e-11   3.0868823769355568e-11   3.1156469353736121e-11   3.1112660417154214e-11   3.1364431032954708e-11   3.1320048553745770e-11   3.1535394275361051e-11   3.1490488607330594e-11   3.1668947268842344e-11   3.1623570013638059e-11   3.1764768320723348e-11   3.1718972205980247e-11   3.1822626633935366e-11   3.1776465386131045e-11   3.1842382862143684e-11   3.1795911078559741e-11   3.1823989445619136e-11   3.1777262463864976e-11   3.1767490725475237e-11   3.1720564491697453e-11   3.1673022837751546e-11   3.1625953771862258e-11   3.1540813382878098e-11   3.1493658245769866e-11   3.1371180881071384e-11   3.1323996636256956e-11   3.1164534001420682e-11   3.1117377681601577e-11   3.0921370580000050e-11   3.0874299149037576e-11   3.0642276418235836e-11   3.0595346636317816e-11   3.0327923873284051e-11   3.0281192160360621e-11   2.9979070237856485e-11   2.9932592539772202e-11   2.9596555915934780e-11   2.9550387570022220e-11   2.9181302397549651e-11   2.9135498001329255e-11   2.8734310039480782e-11   2.8688923319403614e-11   2.8256655655377005e-11   2.8211739339240457e-11   2.7749489921709414e-11   2.7705095612568686e-11   2.7214034605138322e-11   2.7170212658013958e-11   2.6651579620029235e-11   2.6608379021702774e-11   2.6063479920821067e-11   2.6020948172992090e-11   2.5451152237417437e-11   2.5409335243452421e-11   2.4816071662714648e-11   2.4775013618021397e-11   2.4159768099732804e-11   2.4119511385844709e-11   2.3483822574538633e-11   2.3444407658584114e-11   2.2789863428356483e-11   2.2751328766196987e-11   2.2079562395272985e-11   2.2041944339634078e-11   2.1354630573585196e-11   2.1317963287979932e-11   2.0616814305037816e-11   2.0581129681563073e-11   1.9867890966932485e-11   1.9833218550632931e-11   1.9109664689761381e-11   1.9076031608904823e-11   1.8343962011791441e-11   1.8311392912102291e-11   1.7572627477648467e-11   1.7541144464953323e-11   1.6797519194620349e-11   1.6767141781757955e-11   1.6020504355057526e-11   1.5991249416349088e-11   1.5243454737960218e-11   1.5215336469147190e-11   1.4468242198260161e-11   1.4441272083999377e-11   1.3696734156160110e-11   1.3670920943398161e-11   1.2930789096318924e-11   1.2906138774997501e-11   1.2172252088706438e-11   1.2148767878991916e-11   1.1422950340612731e-11   1.1400632687907338e-11   1.0684688792089453e-11   1.0663535368316010e-11   9.9592457636769011e-12   9.9392514765258495e-12   9.2483686683480653e-12   9.2295256772662762e-12   8.5537697973673560e-12   8.5360675374658422e-12   7.8771221909434005e-12   7.8605474037709922e-12   7.2200556033799150e-12   7.2045923755463874e-12   6.5841525743533760e-12   6.5697823828432757e-12   5.9709446158818749e-12   5.9576463806602019e-12   5.3819085269608131e-12   5.3696586696286155e-12   4.8184628471061010e-12   4.8072353552375487e-12   4.2819644620686284e-12   4.2717309575266305e-12   3.7737053763527055e-12   3.7644351852677547e-12   3.2949096694083564e-12   3.2865698906788124e-12   2.8467306569085090e-12   2.8392862237914947e-12   2.4302482833462894e-12   2.4236620105295436e-12   2.0464667807790069e-12   2.0406993851332267e-12   1.6963126397889616e-12   1.6913227176786035e-12   1.3806329557973632e-12   1.3763768909185877e-12   1.1001942377398798e-12   1.0966260007030343e-12   8.5568180126821962e-13   8.5275258202285675e-13   6.4769991910852626e-13   6.4535750126956296e-13   4.7677297429946667e-13   4.7496070910820531e-13   3.4334796674642435e-13   3.4200311817337861e-13   2.4779886491042068e-13   2.4684995445635692e-13   1.9043345438275718e-13   1.8979600658599818e-13   1.7150338144660308e-13   1.7107318227011364e-13   1.9121750066835697e-13   1.9086045352274777e-13   1.8938646011136504e-13   2.4929519011299783e-13   6.2810211354843893e-13   5.1279134110982018e-13   7.9857951372891366e-13   7.9858801079132768e-13   1.0056512196837493e-12   1.0057468624977964e-12   1.2488590194831749e-12   1.2489791018829443e-12   1.5276450367244715e-12   1.5277292050576894e-12   1.8413582572732145e-12   1.8413497493911214e-12   2.1892590926643731e-12   2.1891044938014948e-12   2.5705225920067277e-12   2.5701713543349451e-12   2.9842411558239518e-12   2.9836451667627050e-12   3.4294271524933383e-12   3.4285404022080573e-12   3.9050155993949393e-12   3.9037939406324067e-12   4.4098669675432834e-12   4.4082679513684291e-12   4.9427701291637994e-12   4.9407528991719853e-12   5.5024454506913179e-12   5.4999706820107907e-12   6.08754802