<?xml version="1.0"?>
<VTKFile type="UnstructuredGrid"  version="0.1"  >
<UnstructuredGrid>
<Piece  NumberOfPoints="16641" NumberOfCells="32768">
<Points>
<DataArray  type="Float64"  NumberOfComponents="3"  format="ascii">0 0 0  0.0078125 0 0  0.015625 0 0  0.0234375 0 0  0.03125 0 0  0.0390625 0 0  0.046875 0 0  0.0546875 0 0  0.0625 0 0  0.0703125 0 0  0.078125 0 0  0.0859375 0 0  0.09375 0 0  0.1015625 0 0  0.109375 0 0  0.1171875 0 0  0.125 0 0  0.1328125 0 0  0.140625 0 0  0.1484375 0 0  0.15625 0 0  0.1640625 0 0  0.171875 0 0  0.1796875 0 0  0.1875 0 0  0.1953125 0 0  0.203125 0 0  0.2109375 0 0  0.21875 0 0  0.2265625 0 0  0.234375 0 0  0.2421875 0 0  0.25 0 0  0.2578125 0 0  0.265625 0 0  0.2734375 0 0  0.28125 0 0  0.2890625 0 0  0.296875 0 0  0.3046875 0 0  0.3125 0 0  0.3203125 0 0  0.328125 0 0  0.3359375 0 0  0.34375 0 0  0.3515625 0 0  0.359375 0 0  0.3671875 0 0  0.375 0 0  0.3828125 0 0  0.390625 0 0  0.3984375 0 0  0.40625 0 0  0.4140625 0 0  0.421875 0 0  0.4296875 0 0  0.4375 0 0  0.4453125 0 0  0.453125 0 0  0.4609375 0 0  0.46875 0 0  0.4765625 0 0  0.484375 0 0  0.4921875 0 0  0.5 0 0  0.5078125 0 0  0.515625 0 0  0.5234375 0 0  0.53125 0 0  0.5390625 0 0  0.546875 0 0  0.5546875 0 0  0.5625 0 0  0.5703125 0 0  0.578125 0 0  0.5859375 0 0  0.59375 0 0  0.6015625 0 0  0.609375 0 0  0.6171875 0 0  0.625 0 0  0.6328125 0 0  0.640625 0 0  0.6484375 0 0  0.65625 0 0  0.6640625 0 0  0.671875 0 0  0.6796875 0 0  0.6875 0 0  0.6953125 0 0  0.703125 0 0  0.7109375 0 0  0.71875 0 0  0.7265625 0 0  0.734375 0 0  0.7421875 0 0  0.75 0 0  0.7578125 0 0  0.765625 0 0  0.7734375 0 0  0.78125 0 0  0.7890625 0 0  0.796875 0 0  0.8046875 0 0  0.8125 0 0  0.8203125 0 0  0.828125 0 0  0.8359375 0 0  0.84375 0 0  0.8515625 0 0  0.859375 0 0  0.8671875 0 0  0.875 0 0  0.8828125 0 0  0.890625 0 0  0.8984375 0 0  0.90625 0 0  0.9140625 0 0  0.921875 0 0  0.9296875 0 0  0.9375 0 0  0.9453125 0 0  0.953125 0 0  0.9609375 0 0  0.96875 0 0  0.9765625 0 0  0.984375 0 0  0.9921875 0 0  1 0 0  0 0.0078125 0  0.0078125 0.0078125 0  0.015625 0.0078125 0  0.0234375 0.0078125 0  0.03125 0.0078125 0  0.0390625 0.0078125 0  0.046875 0.0078125 0  0.0546875 0.0078125 0  0.0625 0.0078125 0  0.0703125 0.0078125 0  0.078125 0.0078125 0  0.0859375 0.0078125 0  0.09375 0.0078125 0  0.1015625 0.0078125 0  0.109375 0.0078125 0  0.1171875 0.0078125 0  0.125 0.0078125 0  0.1328125 0.0078125 0  0.140625 0.0078125 0  0.1484375 0.0078125 0  0.15625 0.0078125 0  0.1640625 0.0078125 0  0.171875 0.0078125 0  0.1796875 0.0078125 0  0.1875 0.0078125 0  0.1953125 0.0078125 0  0.203125 0.0078125 0  0.2109375 0.0078125 0  0.21875 0.0078125 0  0.2265625 0.0078125 0  0.234375 0.0078125 0  0.2421875 0.0078125 0  0.25 0.0078125 0  0.2578125 0.0078125 0  0.265625 0.0078125 0  0.2734375 0.0078125 0  0.28125 0.0078125 0  0.2890625 0.0078125 0  0.296875 0.0078125 0  0.3046875 0.0078125 0  0.3125 0.0078125 0  0.3203125 0.0078125 0  0.328125 0.0078125 0  0.3359375 0.0078125 0  0.34375 0.0078125 0  0.3515625 0.0078125 0  0.359375 0.0078125 0  0.3671875 0.0078125 0  0.375 0.0078125 0  0.3828125 0.0078125 0  0.390625 0.0078125 0  0.3984375 0.0078125 0  0.40625 0.0078125 0  0.4140625 0.0078125 0  0.421875 0.0078125 0  0.4296875 0.0078125 0  0.4375 0.0078125 0  0.4453125 0.0078125 0  0.453125 0.0078125 0  0.4609375 0.0078125 0  0.46875 0.0078125 0  0.4765625 0.0078125 0  0.484375 0.0078125 0  0.4921875 0.0078125 0  0.5 0.0078125 0  0.5078125 0.0078125 0  0.515625 0.0078125 0  0.5234375 0.0078125 0  0.53125 0.0078125 0  0.5390625 0.0078125 0  0.546875 0.0078125 0  0.5546875 0.0078125 0  0.5625 0.0078125 0  0.5703125 0.0078125 0  0.578125 0.0078125 0  0.5859375 0.0078125 0  0.59375 0.0078125 0  0.6015625 0.0078125 0  0.609375 0.0078125 0  0.6171875 0.0078125 0  0.625 0.0078125 0  0.6328125 0.0078125 0  0.640625 0.0078125 0  0.6484375 0.0078125 0  0.65625 0.0078125 0  0.6640625 0.0078125 0  0.671875 0.0078125 0  0.6796875 0.0078125 0  0.6875 0.0078125 0  0.6953125 0.0078125 0  0.703125 0.0078125 0  0.7109375 0.0078125 0  0.71875 0.0078125 0  0.7265625 0.0078125 0  0.734375 0.0078125 0  0.7421875 0.0078125 0  0.75 0.0078125 0  0.7578125 0.0078125 0  0.765625 0.0078125 0  0.7734375 0.0078125 0  0.78125 0.0078125 0  0.7890625 0.0078125 0  0.796875 0.0078125 0  0.8046875 0.0078125 0  0.8125 0.0078125 0  0.8203125 0.0078125 0  0.828125 0.0078125 0  0.8359375 0.0078125 0  0.84375 0.0078125 0  0.8515625 0.0078125 0  0.859375 0.0078125 0  0.8671875 0.0078125 0  0.875 0.0078125 0  0.8828125 0.0078125 0  0.890625 0.0078125 0  0.8984375 0.0078125 0  0.90625 0.0078125 0  0.9140625 0.0078125 0  0.921875 0.0078125 0  0.9296875 0.0078125 0  0.9375 0.0078125 0  0.9453125 0.0078125 0  0.953125 0.0078125 0  0.9609375 0.0078125 0  0.96875 0.0078125 0  0.9765625 0.0078125 0  0.984375 0.0078125 0  0.9921875 0.0078125 0  1 0.0078125 0  0 0.015625 0  0.0078125 0.015625 0  0.015625 0.015625 0  0.0234375 0.015625 0  0.03125 0.015625 0  0.0390625 0.015625 0  0.046875 0.015625 0  0.0546875 0.015625 0  0.0625 0.015625 0  0.0703125 0.015625 0  0.078125 0.015625 0  0.0859375 0.015625 0  0.09375 0.015625 0  0.1015625 0.015625 0  0.109375 0.015625 0  0.1171875 0.015625 0  0.125 0.015625 0  0.1328125 0.015625 0  0.140625 0.015625 0  0.1484375 0.015625 0  0.15625 0.015625 0  0.1640625 0.015625 0  0.171875 0.015625 0  0.1796875 0.015625 0  0.1875 0.015625 0  0.1953125 0.015625 0  0.203125 0.015625 0  0.2109375 0.015625 0  0.21875 0.015625 0  0.2265625 0.015625 0  0.234375 0.015625 0  0.2421875 0.015625 0  0.25 0.015625 0  0.2578125 0.015625 0  0.265625 0.015625 0  0.2734375 0.015625 0  0.28125 0.015625 0  0.2890625 0.015625 0  0.296875 0.015625 0  0.3046875 0.015625 0  0.3125 0.015625 0  0.3203125 0.015625 0  0.328125 0.015625 0  0.3359375 0.015625 0  0.34375 0.015625 0  0.3515625 0.015625 0  0.359375 0.015625 0  0.3671875 0.015625 0  0.375 0.015625 0  0.3828125 0.015625 0  0.390625 0.015625 0  0.3984375 0.015625 0  0.40625 0.015625 0  0.4140625 0.015625 0  0.421875 0.015625 0  0.4296875 0.015625 0  0.4375 0.015625 0  0.4453125 0.015625 0  0.453125 0.015625 0  0.4609375 0.015625 0  0.46875 0.015625 0  0.4765625 0.015625 0  0.484375 0.015625 0  0.4921875 0.015625 0  0.5 0.015625 0  0.5078125 0.015625 0  0.515625 0.015625 0  0.5234375 0.015625 0  0.53125 0.015625 0  0.5390625 0.015625 0  0.546875 0.015625 0  0.5546875 0.015625 0  0.5625 0.015625 0  0.5703125 0.015625 0  0.578125 0.015625 0  0.5859375 0.015625 0  0.59375 0.015625 0  0.6015625 0.015625 0  0.609375 0.015625 0  0.6171875 0.015625 0  0.625 0.015625 0  0.6328125 0.015625 0  0.640625 0.015625 0  0.6484375 0.015625 0  0.65625 0.015625 0  0.6640625 0.015625 0  0.671875 0.015625 0  0.6796875 0.015625 0  0.6875 0.015625 0  0.6953125 0.015625 0  0.703125 0.015625 0  0.7109375 0.015625 0  0.71875 0.015625 0  0.7265625 0.015625 0  0.734375 0.015625 0  0.7421875 0.015625 0  0.75 0.015625 0  0.7578125 0.015625 0  0.765625 0.015625 0  0.7734375 0.015625 0  0.78125 0.015625 0  0.7890625 0.015625 0  0.796875 0.015625 0  0.8046875 0.015625 0  0.8125 0.015625 0  0.8203125 0.015625 0  0.828125 0.015625 0  0.8359375 0.015625 0  0.84375 0.015625 0  0.8515625 0.015625 0  0.859375 0.015625 0  0.8671875 0.015625 0  0.875 0.015625 0  0.8828125 0.015625 0  0.890625 0.015625 0  0.8984375 0.015625 0  0.90625 0.015625 0  0.9140625 0.015625 0  0.921875 0.015625 0  0.9296875 0.015625 0  0.9375 0.015625 0  0.9453125 0.015625 0  0.953125 0.015625 0  0.9609375 0.015625 0  0.96875 0.015625 0  0.9765625 0.015625 0  0.984375 0.015625 0  0.9921875 0.015625 0  1 0.015625 0  0 0.0234375 0  0.0078125 0.0234375 0  0.015625 0.0234375 0  0.0234375 0.0234375 0  0.03125 0.0234375 0  0.0390625 0.0234375 0  0.046875 0.0234375 0  0.0546875 0.0234375 0  0.0625 0.0234375 0  0.0703125 0.0234375 0  0.078125 0.0234375 0  0.0859375 0.0234375 0  0.09375 0.0234375 0  0.1015625 0.0234375 0  0.109375 0.0234375 0  0.1171875 0.0234375 0  0.125 0.0234375 0  0.1328125 0.0234375 0  0.140625 0.0234375 0  0.1484375 0.0234375 0  0.15625 0.0234375 0  0.1640625 0.0234375 0  0.171875 0.0234375 0  0.1796875 0.0234375 0  0.1875 0.0234375 0  0.1953125 0.0234375 0  0.203125 0.0234375 0  0.2109375 0.0234375 0  0.21875 0.0234375 0  0.2265625 0.0234375 0  0.234375 0.0234375 0  0.2421875 0.0234375 0  0.25 0.0234375 0  0.2578125 0.0234375 0  0.265625 0.0234375 0  0.2734375 0.0234375 0  0.28125 0.0234375 0  0.2890625 0.0234375 0  0.296875 0.0234375 0  0.3046875 0.0234375 0  0.3125 0.0234375 0  0.3203125 0.0234375 0  0.328125 0.0234375 0  0.3359375 0.0234375 0  0.34375 0.0234375 0  0.3515625 0.0234375 0  0.359375 0.0234375 0  0.3671875 0.0234375 0  0.375 0.0234375 0  0.3828125 0.0234375 0  0.390625 0.0234375 0  0.3984375 0.0234375 0  0.40625 0.0234375 0  0.4140625 0.0234375 0  0.421875 0.0234375 0  0.4296875 0.0234375 0  0.4375 0.0234375 0  0.4453125 0.0234375 0  0.453125 0.0234375 0  0.4609375 0.0234375 0  0.46875 0.0234375 0  0.4765625 0.0234375 0  0.484375 0.0234375 0  0.4921875 0.0234375 0  0.5 0.0234375 0  0.5078125 0.0234375 0  0.515625 0.0234375 0  0.5234375 0.0234375 0  0.53125 0.0234375 0  0.5390625 0.0234375 0  0.546875 0.0234375 0  0.5546875 0.0234375 0  0.5625 0.0234375 0  0.5703125 0.0234375 0  0.578125 0.0234375 0  0.5859375 0.0234375 0  0.59375 0.0234375 0  0.6015625 0.0234375 0  0.609375 0.0234375 0  0.6171875 0.0234375 0  0.625 0.0234375 0  0.6328125 0.0234375 0  0.640625 0.0234375 0  0.6484375 0.0234375 0  0.65625 0.0234375 0  0.6640625 0.0234375 0  0.671875 0.0234375 0  0.6796875 0.0234375 0  0.6875 0.0234375 0  0.6953125 0.0234375 0  0.703125 0.0234375 0  0.7109375 0.0234375 0  0.71875 0.0234375 0  0.7265625 0.0234375 0  0.734375 0.0234375 0  0.7421875 0.0234375 0  0.75 0.0234375 0  0.7578125 0.0234375 0  0.765625 0.0234375 0  0.7734375 0.0234375 0  0.78125 0.0234375 0  0.7890625 0.0234375 0  0.796875 0.0234375 0  0.8046875 0.0234375 0  0.8125 0.0234375 0  0.8203125 0.0234375 0  0.828125 0.0234375 0  0.8359375 0.0234375 0  0.84375 0.0234375 0  0.8515625 0.0234375 0  0.859375 0.0234375 0  0.8671
[...]
<CellData  Scalars="f_7799"> 
<DataArray  type="Float64"  Name="f_7799"  format="ascii">5.9350838829509626e-12   5.9119534881742460e-12   7.7329409440146230e-12   1.0255797557879216e-11   9.7712964454173283e-12   1.3915634642937038e-11   1.2072034996355098e-11   1.8150428605679712e-11   1.4640771020788396e-11   2.2957921490607813e-11   1.7476696876977266e-11   2.8329356268502288e-11   2.0575722768747256e-11   3.4252330423398418e-11   2.3931814242934779e-11   4.0712089846388675e-11   2.7537629514017229e-11   4.7692162905602000e-11   3.1384850095668188e-11   5.5174687460267326e-11   3.5464367394747636e-11   6.3140592577171832e-11   3.9766397647741786e-11   7.1569710541996518e-11   4.4280559412657099e-11   8.0440855125531190e-11   4.8995930722021544e-11   8.9731883675823794e-11   5.3901094887488536e-11   9.9419751884303427e-11   5.8984179895014038e-11   1.0948056577585907e-10   6.4232894201878635e-11   1.1988963331557553e-10   6.9634560579491154e-11   1.3062151686091736e-10   7.5176148981658859e-11   1.4165008708460326e-10   8.0844309029240952e-11   1.5294857863799440e-10   8.6625402460938613e-11   1.6448964764183330e-10   9.2505535753995097e-11   1.7624543096300827e-10   9.8470593023160808e-11   1.8818760718497622e-10   1.0450626924293150e-10   2.0028745912871587e-10   1.1059810380005602e-10   2.1251593776474089e-10   1.1673151435340997e-10   2.2484372734234266e-10   1.2289183095523392e-10   2.3724131154979468e-10   1.2906433038378606e-10   2.4967904051529379e-10   1.3523427062190512e-10   2.6212719847145144e-10   1.4138692540724200e-10   2.7455607188103751e-10   1.4750761878069577e-10   2.8693601783895291e-10   1.5358175955569902e-10   2.9923753255997247e-10   1.5959487562645259e-10   3.1143131977322721e-10   1.6553264803615242e-10   3.2348835882773537e-10   1.7138094471577221e-10   3.3537997233763113e-10   1.7712585381966388e-10   3.4707789317236763e-10   1.8275371657409872e-10   3.5855433063093028e-10   1.8825115955818636e-10   3.6978203562578675e-10   1.9360512632821439e-10   3.8073436468888485e-10   1.9880290832611580e-10   3.9138534264949440e-10   2.0383217497945113e-10   4.0170972383049014e-10   2.0868100292345114e-10   4.1168305157751605e-10   2.1333790427139482e-10   4.2128171599476736e-10   2.1779185387173624e-10   4.3048300972523688e-10   2.2203231546774386e-10   4.3926518164585875e-10   2.2604926671018852e-10   4.4760748832420550e-10   2.2983322295021435e-10   4.5549024311944319e-10   2.3337525976220605e-10   4.6289486279624258e-10   2.3666703412880350e-10   4.6980391154077011e-10   2.3970080425264110e-10   4.7620114225435563e-10   2.4246944792179931e-10   4.8207153504267465e-10   2.4496647940639179e-10   4.8740133276461010e-10   2.4718606482821366e-10   4.9217807359979897e-10   2.4912303597386930e-10   4.9639062050881808e-10   2.5077290250720434e-10   5.0002918754016471e-10   2.5213186256010983e-10   5.0308536289272833e-10   2.5319681166703303e-10   5.0555212869871333e-10   2.5396535003190246e-10   5.0742387745931134e-10   2.5443578808220012e-10   5.0869642509848775e-10   2.5460715033271152e-10   5.0936702058361742e-10   2.5447917751568209e-10   5.0943435211858399e-10   2.5405232698783251e-10   5.0889854985700335e-10   2.5332777140729865e-10   5.0776118514952935e-10   2.5230739568426625e-10   5.0602526630988171e-10   2.5099379220566843e-10   5.0369523091866956e-10   2.4939025435184811e-10   5.0077693467227031e-10   2.4750076831339826e-10   4.9727763679972826e-10   2.4533000323129862e-10   4.9320598209274077e-10   2.4288329966961658e-10   4.8857197957168550e-10   2.4016665647900643e-10   4.8338697784510280e-10   2.3718671603029516e-10   4.7766363723390252e-10   2.3395074790726705e-10   4.7141589868270469e-10   2.3046663105211337e-10   4.6465894958426554e-10   2.2674283443666369e-10   4.5740918655558305e-10   2.2278839627377586e-10   4.4968417527111282e-10   2.1861290185553323e-10   4.4150260743571029e-10   2.1422646002274536e-10   4.3288425502259898e-10   2.0963967836993398e-10   4.2384992183857274e-10   2.0486363719611013e-10   4.1442139258511921e-10   1.9990986230263989e-10   4.0462137948035102e-10   1.9479029667042593e-10   3.9447346661680662e-10   1.8951727110057590e-10   3.8400205214411052e-10   1.8410347387626127e-10   3.7323228843367181e-10   1.7856191952290476e-10   3.6219002036436040e-10   1.7290591672843887e-10   3.5090172186781876e-10   1.6714903551191859e-10   3.3939443087759075e-10   1.6130507369557166e-10   3.2769568284867148e-10   1.5538802277616968e-10   3.1583344297838752e-10   1.4941203325955008e-10   3.0383603731196772e-10   1.4339137953734669e-10   2.9173208286885535e-10   1.3734042438897936e-10   2.7955041696276794e-10   1.3127358318250454e-10   2.6732002587397367e-10   1.2520528785145221e-10   2.5506997303333717e-10   1.1914995072552682e-10   2.4282932688141865e-10   1.1312192829127192e-10   2.3062708856346151e-10   1.0713548495277390e-10   2.1849211962049111e-10   1.0120475686838503e-10   2.0645306982886980e-10   9.5343715930215557e-11   1.9453830534587102e-10   8.9566133945290040e-11   1.8277583731523042e-10   8.3885547089079522e-11   1.7119325106188407e-10   7.8315220672229716e-11   1.5981763603038741e-10   7.2868114279900561e-11   1.4867551658217935e-10   6.7556847306252849e-11   1.3779278378134608e-10   6.2393664923001847e-11   1.2719462826227724e-10   5.7390404477778257e-11   1.1690547427928737e-10   5.2558462324636481e-11   1.0694891499857487e-10   4.7908761038899507e-11   9.7347649076887923e-11   4.3451716957840767e-11   8.8123418536031904e-11   3.9197207923735765e-11   7.9296947895626088e-11   3.5154541056214969e-11   7.0887884468501031e-11   3.1332420291230911e-11   6.2914739640504167e-11   2.7738913301805327e-11   5.5394830853419581e-11   2.4381417243423681e-11   4.8344223841096659e-11   2.1266622505187208e-11   4.1777674458067657e-11   1.8400473261461346e-11   3.5708569096094664e-11   1.5788123008126106e-11   3.0148862193537570e-11   1.3433882295050731e-11   2.5109008563558992e-11   1.1341154251425435e-11   2.0597887020815180e-11   9.5123507081275418e-12   1.6622709743976544e-11   7.9487766822102584e-12   1.3188908280479164e-11   6.6504613729717530e-12   1.0299980806692939e-11   5.6158942851309671e-12   7.9572734126834887e-12   4.8415821873404532e-12   6.1596445956131668e-12   4.3212387650717045e-12   4.9029116111002301e-12   4.0441348251418991e-12   4.1788588373057567e-12   3.9912274688833822e-12   3.9732774079559559e-12   4.1240068358421347e-12   4.2615643763686398e-12   3.3345752815609751e-12   4.9970240846974592e-12   1.3196817531972694e-11   1.0604208699193532e-11   1.6858124971262573e-11   1.6806798454385398e-11   2.1120504256868610e-11   2.1020763931639155e-11   2.5959741021054243e-11   2.5826920545665920e-11   3.1360267425154699e-11   3.1200700146219757e-11   3.7307195487042783e-11   3.7123459751158530e-11   4.3784923746058888e-11   4.3577824465025926e-11   5.0776772339612102e-11   5.0546263226137573e-11   5.8264918623238014e-11   5.8010538725185174e-11   6.6230426666930306e-11   6.5951512361464495e-11   7.4653299947704750e-11   7.4349092541601262e-11   8.3512536592983856e-11   8.3182240018356887e-11   9.2786182891540450e-11   9.2428996582891430e-11   1.0245138529268984e-10   1.0206652417007297e-10   1.1248444193570478e-10   1.1207114939241937e-10   1.2286085464329923e-10   1.2241841155819401e-10   1.3355538199918718e-10   1.3308311339416454e-10   1.4454209387987676e-10   1.4403937410101715e-10   1.5579442762314306e-10   1.5526068455461441e-10   1.6728524588563650e-10   1.6671996447853900e-10   1.7898689615526365e-10   1.7838962145127402e-10   1.9087127183534509e-10   1.9024161158059092e-10   2.0290987477348226e-10   2.0224750169156686e-10   2.1507387909058430e-10   2.1437853284992306e-10   2.2733419614974430e-10   2.2660568504895711e-10   2.3966154049152831e-10   2.3889974288175400e-10   2.5202649655323670e-10   2.5123136200540844e-10   2.6439958600728084e-10   2.6357113622801615e-10   2.7675133552008707e-10   2.7588966502847928e-10   2.8905234475319604e-10   2.8815762131341952e-10   3.0127335442525360e-10   3.0034581924908171e-10   3.1338531425419256e-10   3.1242528196337439e-10   3.2535945059399512e-10   3.2436730896047649e-10   3.3716733359245639e-10   3.3614354304378983e-10   3.4878094368489809e-10   3.4772603659804006e-10   3.6017273725975558e-10   3.5908731703030998e-10   3.7131571132620460e-10   3.7020045121992314e-10   3.8218346700152536e-10   3.8103910880833313e-10   3.9275027166516780e-10   3.9157762414262303e-10   4.0299111963269572e-10   4.0179105675136822e-10   4.1288179116228000e-10   4.1165525016623429e-10   4.2239890967209207e-10   4.2114688894593971e-10   4.3151999700654330e-10   4.3024355377517234e-10   4.4022352662348189e-10   4.3892377447056722e-10   4.4848897455187175e-10   4.4716708078576615e-10   4.5629686800263839e-10   4.5495405086107115e-10   4.6362883150320838e-10   4.6226635721485327e-10   4.7046763044697182e-10   4.6908681015484298e-10   4.7679721193351134e-10   4.7539939849223777e-10   4.8260274281935441e-10   4.8118932746764030e-10   4.8787064484359666e-10   4.8644305377881950e-10   4.9258862679092608e-10   4.9114831762662140e-10   4.9674571356417928e-10   4.9529417171708542e-10   5.0033227212211526e-10   4.9887100710225128e-10   5.0334003419487377e-10   5.0187057584314863e-10   5.0576211573879371e-10   5.0428601039129017e-10   5.0759303306731615e-10   5.0611183968311036e-10   5.0882871562139509e-10   5.0734400186487524e-10   5.0946651533037551e-10   5.0797985363660598e-10   5.0950521257009358e-10   5.0801817618561152e-10   5.0894501866353248e-10   5.0745917769015944e-10   5.0778757494305194e-10   5.0630449238553630e-10   5.0603594835528556e-10   5.0455717618973624e-10   5.0369462362932168e-10   5.0222169889934145e-10   5.0076949201761741e-10   4.9930393296841223e-10   4.9726783662939635e-10   4.9581113890179271e-10   4.9319831440557132e-10   4.9175194727775035e-10   4.8857093475544842e-10   4.8713633747647189e-10   4.8339703491333249e-10   4.8197561310827251e-10   4.7768925208726454e-10   4.7628237425499147e-10   4.7146149242147298e-10   4.7007048655310295e-10   4.6472889689771864e-10   4.6335504719285497e-10   4.5750780421543682e-10   4.5615234793579151e-10   4.4981571075435565e-10   4.4847983521122241e-10   4.4167122770272255e-10   4.4035606739195245e-10   4.3309403547543145e-10   4.3180066936008903e-10   4.2410483548444297e-10   4.2283428445931560e-10   4.1472529942934730e-10   4.1347852393923325e-10   4.0497801617096451e-10   4.0375591403652836e-10   3.9488643636556922e-10   3.9368984078158872e-10   3.8447481494420415e-10   3.8330449269543653e-10   3.7376815159632703e-10   3.7262480147760594e-10   3.6279212939500850e-10   3.6167638084870172e-10   3.5157305169911061e-10   3.5048546369050987e-10   3.4013777748011530e-10   3.3907883760399064e-10   3.2851365523575033e-10   3.2748377906418201e-10   3.1672845561999156e-10   3.1572798631665603e-10   3.0481030297449480e-10   3.0383951115863741e-10   2.9278760589333527e-10   2.9184668978780467e-10   2.8068898699471897e-10   2.7977807284872310e-10   2.6854321205402151e-10   2.6766235486084292e-10   2.5637911866103251e-10   2.5552830317665177e-10   2.4422554455859435e-10   2.4340468663273448e-10   2.3211125582387333e-10   2.3132020406094519e-10   2.2006487505057461e-10   2.1930341280708202e-10   2.0811480968385541e-10   2.0738265742448972e-10   1.9628918066190586e-10   1.9558599868838087e-10   1.8461575151931843e-10   1.8394114309033177e-10   1.7312185807454034e-10   1.7247537295648616e-10   1.6183433886094732e-10   1.6121547731590101e-10   1.5077946641029762e-10   1.5018768367655145e-10   1.3998287951839885e-10   1.3941759081460342e-10   1.2946951658412483e-10   1.2893010269884438e-10   1.1926355012330521e-10   1.1874936364680949e-10   1.0938832251508813e-10   1.0889869480374435e-10   9.9866283027248072e-11   9.9400532000285594e-11   9.0718926134572009e-11   9.0276365037898817e-11   8.1966731091898560e-11   8.1546678402328592e-11   7.3629102685323138e-11   7.3230893377111080e-11   6.5724312993069527e-11   6.5347311470262484e-11   5.8269443907954377e-11   5.7913058997458447e-11   5.1280330019952184e-11   5.0944032575176532e-11   4.4771501280059566e-11   4.4454845145078488e-11   3.8756124578020276e-11   3.8458771980091505e-11   3.3245942978056093e-11   3.2967695874210565e-11   2.8251210746061430e-11   2.7992050373876511e-11   2.3780621389096820e-11   2.3540759406831089e-11   1.9841224495161961e-11   1.9621170948072635e-11   1.6438324861062404e-11   1.6238981324504657e-11   1.3575353641315432e-11   1.3398145276963215e-11   1.1253694961562568e-11   1.1100764881208253e-11   9.4724407477087751e-12   9.3469479878244130e-12   8.2280282533967310e-12   8.1346250976479875e-12   7.5136844102831597e-12   7.4593176517727236e-12   7.3185583098207019e-12   7.3138828972593220e-12   7.6264267520050187e-12   7.6884277487785354e-12   8.4146688727716880e-12   8.5715156751605225e-12   7.6806318276688821e-12   9.9602554643458572e-12   2.0713663581050934e-11   1.6479917907239768e-11   2.4904513214840480e-11   2.4871041051330176e-11   2.9716087984204998e-11   2.9633755139047460e-11   3.5103909603229541e-11   3.4983367948334103e-11   4.1041822588221097e-11   4.0888698169081790e-11   4.7508938382779076e-11   4.7326387669114496e-11   5.4485886958788021e-11   5.4275639653741028e-11   6.1953449522103863e-11   6.1716346413062286e-11   6.9891980125011092e-11   6.9628305822826844e-11   7.8281147992718695e-11   7.7990843979022871e-11   8.7099830219585389e-11   8.6782630135608729e-11   9.6326078614519860e-11   9.5981594266520195e-11   1.0593712438189897e-10   1.0556490122149264e-10   1.1590940307901192e-10   1.1550895684669149e-10   1.2621859120433266e-10   1.2578943283421368e-10   1.3683965004463255e-10   1.3638130311327174e-10   1.4774687445588651e-10   1.4725888779828539e-10   1.5891394529751667e-10   1.5839590239464008e-10   1.7031398472830451e-10   1.6976551088833157e-10   1.8191961386970952e-10   1.8134038184313961e-10   1.9370301245219125e-10   1.9309274690990601e-10   2.0563598016720436e-10   2.0499446131072103e-10   2.1768999946625385e-10   2.1701706596720455e-10   2.2983629958704731e-10   2.2913185097603924e-10   2.4204592159847766e-10   2.4130992019284633e-10   2.5428978425559575e-10   2.5352225669531802e-10   2.6653875047877008e-10   2.6573978890752178e-10   2.7876369426510017e-10   2.7793345719084676e-10   2.9093556783075766e-10   2.9007428069564747e-10   3.0302546881779059e-10   3.0213342428863473e-10   3.1500470736570902e-10   3.1408226537142702e-10   3.2684487288438362e-10   3.2589246039501958e-10   3.3851790032746813e-10   3.3753601090571610e-10   3.4999613582012702e-10   3.4898532893451127e-10   3.6125240143711931e-10   3.6021330156503467e-10   3.7226005898826947e-10   3.7119335450229658e-10   3.8299307263923169e-10   3.8189951448066386e-10   3.9342607018679829e-10   3.9230647036043842e-10   4.0353440286606430e-10   4.0238963272730226e-10   4.1329420350550367e-10   4.1212519187014031e-10   4.2268244288952597e-10   4.2149017397339681e-10   4.3167698420218928e-10   4.3046249538702491e-10   4.4025663538242885e-10   4.3902101482635620e-10   4.4840119929151483e-10   4.4714558338443565e-10   4.5609152153187989e-10   4.5481709221103718e-10   4.6330953582251167e-10   4.6201751775103192e-10   4.7003830680728144e-10   4.6872996443034020e-10   4.7626207018088040e-10   4.7493870466179184e-10   4.8196627004288101e-10   4.8062921608880206e-10   4.8713759337395934e-10   4.8578821597295035e-10   4.9176400154561510e-10   4.9040369260593427e-10   4.9583475881189923e-10   4.9446493372477807e-10   4.9934045765741048e-10   4.9796255179375955e-10   5.0227304099319603e-10   5.0088850613605282e-10   5.0462582109430426e-10   5.0323612183230245e-10   5.0639349527644532e-10   5.0500010534308450e-10   5.0757215822869430e-10   5.0617655682747551e-10   5.0815931099358853e-10   5.0676297909911310e-10   5.0815386656369375e-10   5.0675828321748340e-10   5.0755615207841254e-10   5.0616279068694905e-10   5.0636790761262996e-10   5.0497823225535573e-10   5.0459228155484854e-10   5.0320774332811604e-10   5.0223382258743863e-10   5.0085585596695150e-10   4.9929846828029319e-10   4.9792848754563420e-10   4.9579353033203641e-10   4.9443292602813982e-10   4.9172767647184992e-10   4.9037781196007361e-10   4.8711090909953440e-10   4.8577311715851249e-10   4.8195454065906229e-10   4.8063012019865657e-10   4.7627116585785926e-10   4.7496137870359697e-10   4.7007463075929965e-10   4.6878069856152601e-10   4.6337999882613311e-10   4.6210310008059618e-10   4.5620351401338945e-10   4.5494478120530346e-10   4.4856256097368808e-10   4.4732307785365096e-10   4.4047562247292633e-10   4.3925642148966457e-10   4.3196223412939515e-10   4.3076429400124132e-10   4.2304293656885377e-10   4.2186718002475500e-10   4.1373922510454252e-10   4.1258651679935234e-10   4.0407349708186873e-10   4.0294464168528263e-10   3.9406899698084190e-10   3.9296473746042346e-10   3.8374975943433012e-10   3.8267077552954957e-10   3.7314055026932255e-10   3.7208745717312273e-10   3.6226680572500144e-10   3.6124015298369024e-10   3.5115456999916678e-10   3.5015484061941448e-10   3.3983043123437853e-10   3.3885804103709895e-10   3.2832145612670295e-10   3.2737675332353349e-10   3.1665512329749481e-10   3.1573838831728545e-10   3.0485925557292722e-10   3.0397070114888630e-10   2.9296195135018230e-10   2.9210172285602508e-10   2.8099151518010323e-10   2.8015969124892894e-10   2.6897638775159062e-10   2.6817298116570692e-10   2.5694507541962791e-10   2.5617003429648321e-10   2.4492607944141870e-10   2.4417928872139505e-10   2.3294782508797090e-10   2.3222910832847002e-10   2.2103859077305262e-10   2.2034771227739411e-10   2.0922643736979537e-10   2.0856310465036203e-10   1.9753913785498599e-10   1.9690300446153350e-10   1.8600410744331277e-10   1.8539477616602356e-10   1.7464833435079861e-10   1.7406536082315055e-10   1.6349831131734251e-10   1.6294120805747978e-10   1.5257996803693717e-10   1.5204820894546398e-10   1.4191860461164294e-10   1.4141162997522915e-10   1.3153882614140536e-10   1.3105604819177630e-10   1.2146447855598492e-10   1.2100528764232317e-10   1.1171858577345605e-10   1.1128235722441353e-10   1.0232328825620663e-10   1.0190939002503786e-10   9.3299783006013953e-11   9.2907584222279684e-11   8.4668265021425325e-11   8.4297145594664222e-11   7.6447870196102218e-11   7.6097231672789366e-11   6.8656619595448295e-11   6.8325897517481259e-11   6.1311364989238599e-11   6.1000043094763596e-11   5.4427735443396155e-11   5.4135362144403561e-11   4.8020084669768610e-11   4.7746292408049729e-11   4.2101438700255026e-11   4.1845966988818555e-11   3.6683443269052236e-11   3.6446166543117346e-11   3.1776310045002414e-11   3.1557271889249752e-11   2.7388760518212511e-11   2.7188216509026683e-11   2.3527965902120513e-11   2.3346438295997374e-11   2.0199480821056008e-11   2.0037829834513258e-11   1.7407167810241302e-11   1.7266686562599299e-11   1.5153108830372164e-11   1.5035652618872938e-11   1.3437499363444895e-11   1.3345665544602516e-11   1.2258521113246704e-11   1.2195904629900012e-11   1.1612193601787924e-11   1.1583757026887111e-11   1.1492222465801155e-11   1.1504841381947753e-11   1.1889933888504939e-11   1.1953208401518334e-11   1.2794727491082334e-11   1.2922124136366428e-11   1.4197304294142155e-11   1.4406964201226196e-11   1.2846802258043979e-11   1.6415683058616437e-11   2.9682686692323277e-11   2.3500102017665486e-11   3.4418380760377918e-11   3.4385950132705127e-11   3.9764408192758472e-11   3.9687242446220900e-11   4.5674841399469175e-11   4.5559041050121734e-11   5.2119325208194266e-11   5.1968978593837124e-11   5.9073563203324566e-11   5.8891275141516511e-11   6.6515488467156364e-11   6.6302929612222864e-11   7.4423717865639606e-11   7.4181930566148479e-11   8.2776851631772281e-11   8.2506436335003462e-11   9.1553122678811128e-11   9.1254368409582160e-11   1.0073021587399848e-10   1.0040319670273899e-10   1.1028518049116783e-10   1.0992982680005141e-10   1.2019439694723803e-10   1.1981054757264417e-10   1.3043357626877288e-10   1.3002101653128231e-10   1.4097777991