<?xml version="1.0"?>
<VTKFile type="UnstructuredGrid"  version="0.1"  >
<UnstructuredGrid>
<Piece  NumberOfPoints="16641" NumberOfCells="32768">
<Points>
<DataArray  type="Float64"  NumberOfComponents="3"  format="ascii">0 0 0  0.0078125 0 0  0.015625 0 0  0.0234375 0 0  0.03125 0 0  0.0390625 0 0  0.046875 0 0  0.0546875 0 0  0.0625 0 0  0.0703125 0 0  0.078125 0 0  0.0859375 0 0  0.09375 0 0  0.1015625 0 0  0.109375 0 0  0.1171875 0 0  0.125 0 0  0.1328125 0 0  0.140625 0 0  0.1484375 0 0  0.15625 0 0  0.1640625 0 0  0.171875 0 0  0.1796875 0 0  0.1875 0 0  0.1953125 0 0  0.203125 0 0  0.2109375 0 0  0.21875 0 0  0.2265625 0 0  0.234375 0 0  0.2421875 0 0  0.25 0 0  0.2578125 0 0  0.265625 0 0  0.2734375 0 0  0.28125 0 0  0.2890625 0 0  0.296875 0 0  0.3046875 0 0  0.3125 0 0  0.3203125 0 0  0.328125 0 0  0.3359375 0 0  0.34375 0 0  0.3515625 0 0  0.359375 0 0  0.3671875 0 0  0.375 0 0  0.3828125 0 0  0.390625 0 0  0.3984375 0 0  0.40625 0 0  0.4140625 0 0  0.421875 0 0  0.4296875 0 0  0.4375 0 0  0.4453125 0 0  0.453125 0 0  0.4609375 0 0  0.46875 0 0  0.4765625 0 0  0.484375 0 0  0.4921875 0 0  0.5 0 0  0.5078125 0 0  0.515625 0 0  0.5234375 0 0  0.53125 0 0  0.5390625 0 0  0.546875 0 0  0.5546875 0 0  0.5625 0 0  0.5703125 0 0  0.578125 0 0  0.5859375 0 0  0.59375 0 0  0.6015625 0 0  0.609375 0 0  0.6171875 0 0  0.625 0 0  0.6328125 0 0  0.640625 0 0  0.6484375 0 0  0.65625 0 0  0.6640625 0 0  0.671875 0 0  0.6796875 0 0  0.6875 0 0  0.6953125 0 0  0.703125 0 0  0.7109375 0 0  0.71875 0 0  0.7265625 0 0  0.734375 0 0  0.7421875 0 0  0.75 0 0  0.7578125 0 0  0.765625 0 0  0.7734375 0 0  0.78125 0 0  0.7890625 0 0  0.796875 0 0  0.8046875 0 0  0.8125 0 0  0.8203125 0 0  0.828125 0 0  0.8359375 0 0  0.84375 0 0  0.8515625 0 0  0.859375 0 0  0.8671875 0 0  0.875 0 0  0.8828125 0 0  0.890625 0 0  0.8984375 0 0  0.90625 0 0  0.9140625 0 0  0.921875 0 0  0.9296875 0 0  0.9375 0 0  0.9453125 0 0  0.953125 0 0  0.9609375 0 0  0.96875 0 0  0.9765625 0 0  0.984375 0 0  0.9921875 0 0  1 0 0  0 0.0078125 0  0.0078125 0.0078125 0  0.015625 0.0078125 0  0.0234375 0.0078125 0  0.03125 0.0078125 0  0.0390625 0.0078125 0  0.046875 0.0078125 0  0.0546875 0.0078125 0  0.0625 0.0078125 0  0.0703125 0.0078125 0  0.078125 0.0078125 0  0.0859375 0.0078125 0  0.09375 0.0078125 0  0.1015625 0.0078125 0  0.109375 0.0078125 0  0.1171875 0.0078125 0  0.125 0.0078125 0  0.1328125 0.0078125 0  0.140625 0.0078125 0  0.1484375 0.0078125 0  0.15625 0.0078125 0  0.1640625 0.0078125 0  0.171875 0.0078125 0  0.1796875 0.0078125 0  0.1875 0.0078125 0  0.1953125 0.0078125 0  0.203125 0.0078125 0  0.2109375 0.0078125 0  0.21875 0.0078125 0  0.2265625 0.0078125 0  0.234375 0.0078125 0  0.2421875 0.0078125 0  0.25 0.0078125 0  0.2578125 0.0078125 0  0.265625 0.0078125 0  0.2734375 0.0078125 0  0.28125 0.0078125 0  0.2890625 0.0078125 0  0.296875 0.0078125 0  0.3046875 0.0078125 0  0.3125 0.0078125 0  0.3203125 0.0078125 0  0.328125 0.0078125 0  0.3359375 0.0078125 0  0.34375 0.0078125 0  0.3515625 0.0078125 0  0.359375 0.0078125 0  0.3671875 0.0078125 0  0.375 0.0078125 0  0.3828125 0.0078125 0  0.390625 0.0078125 0  0.3984375 0.0078125 0  0.40625 0.0078125 0  0.4140625 0.0078125 0  0.421875 0.0078125 0  0.4296875 0.0078125 0  0.4375 0.0078125 0  0.4453125 0.0078125 0  0.453125 0.0078125 0  0.4609375 0.0078125 0  0.46875 0.0078125 0  0.4765625 0.0078125 0  0.484375 0.0078125 0  0.4921875 0.0078125 0  0.5 0.0078125 0  0.5078125 0.0078125 0  0.515625 0.0078125 0  0.5234375 0.0078125 0  0.53125 0.0078125 0  0.5390625 0.0078125 0  0.546875 0.0078125 0  0.5546875 0.0078125 0  0.5625 0.0078125 0  0.5703125 0.0078125 0  0.578125 0.0078125 0  0.5859375 0.0078125 0  0.59375 0.0078125 0  0.6015625 0.0078125 0  0.609375 0.0078125 0  0.6171875 0.0078125 0  0.625 0.0078125 0  0.6328125 0.0078125 0  0.640625 0.0078125 0  0.6484375 0.0078125 0  0.65625 0.0078125 0  0.6640625 0.0078125 0  0.671875 0.0078125 0  0.6796875 0.0078125 0  0.6875 0.0078125 0  0.6953125 0.0078125 0  0.703125 0.0078125 0  0.7109375 0.0078125 0  0.71875 0.0078125 0  0.7265625 0.0078125 0  0.734375 0.0078125 0  0.7421875 0.0078125 0  0.75 0.0078125 0  0.7578125 0.0078125 0  0.765625 0.0078125 0  0.7734375 0.0078125 0  0.78125 0.0078125 0  0.7890625 0.0078125 0  0.796875 0.0078125 0  0.8046875 0.0078125 0  0.8125 0.0078125 0  0.8203125 0.0078125 0  0.828125 0.0078125 0  0.8359375 0.0078125 0  0.84375 0.0078125 0  0.8515625 0.0078125 0  0.859375 0.0078125 0  0.8671875 0.0078125 0  0.875 0.0078125 0  0.8828125 0.0078125 0  0.890625 0.0078125 0  0.8984375 0.0078125 0  0.90625 0.0078125 0  0.9140625 0.0078125 0  0.921875 0.0078125 0  0.9296875 0.0078125 0  0.9375 0.0078125 0  0.9453125 0.0078125 0  0.953125 0.0078125 0  0.9609375 0.0078125 0  0.96875 0.0078125 0  0.9765625 0.0078125 0  0.984375 0.0078125 0  0.9921875 0.0078125 0  1 0.0078125 0  0 0.015625 0  0.0078125 0.015625 0  0.015625 0.015625 0  0.0234375 0.015625 0  0.03125 0.015625 0  0.0390625 0.015625 0  0.046875 0.015625 0  0.0546875 0.015625 0  0.0625 0.015625 0  0.0703125 0.015625 0  0.078125 0.015625 0  0.0859375 0.015625 0  0.09375 0.015625 0  0.1015625 0.015625 0  0.109375 0.015625 0  0.1171875 0.015625 0  0.125 0.015625 0  0.1328125 0.015625 0  0.140625 0.015625 0  0.1484375 0.015625 0  0.15625 0.015625 0  0.1640625 0.015625 0  0.171875 0.015625 0  0.1796875 0.015625 0  0.1875 0.015625 0  0.1953125 0.015625 0  0.203125 0.015625 0  0.2109375 0.015625 0  0.21875 0.015625 0  0.2265625 0.015625 0  0.234375 0.015625 0  0.2421875 0.015625 0  0.25 0.015625 0  0.2578125 0.015625 0  0.265625 0.015625 0  0.2734375 0.015625 0  0.28125 0.015625 0  0.2890625 0.015625 0  0.296875 0.015625 0  0.3046875 0.015625 0  0.3125 0.015625 0  0.3203125 0.015625 0  0.328125 0.015625 0  0.3359375 0.015625 0  0.34375 0.015625 0  0.3515625 0.015625 0  0.359375 0.015625 0  0.3671875 0.015625 0  0.375 0.015625 0  0.3828125 0.015625 0  0.390625 0.015625 0  0.3984375 0.015625 0  0.40625 0.015625 0  0.4140625 0.015625 0  0.421875 0.015625 0  0.4296875 0.015625 0  0.4375 0.015625 0  0.4453125 0.015625 0  0.453125 0.015625 0  0.4609375 0.015625 0  0.46875 0.015625 0  0.4765625 0.015625 0  0.484375 0.015625 0  0.4921875 0.015625 0  0.5 0.015625 0  0.5078125 0.015625 0  0.515625 0.015625 0  0.5234375 0.015625 0  0.53125 0.015625 0  0.5390625 0.015625 0  0.546875 0.015625 0  0.5546875 0.015625 0  0.5625 0.015625 0  0.5703125 0.015625 0  0.578125 0.015625 0  0.5859375 0.015625 0  0.59375 0.015625 0  0.6015625 0.015625 0  0.609375 0.015625 0  0.6171875 0.015625 0  0.625 0.015625 0  0.6328125 0.015625 0  0.640625 0.015625 0  0.6484375 0.015625 0  0.65625 0.015625 0  0.6640625 0.015625 0  0.671875 0.015625 0  0.6796875 0.015625 0  0.6875 0.015625 0  0.6953125 0.015625 0  0.703125 0.015625 0  0.7109375 0.015625 0  0.71875 0.015625 0  0.7265625 0.015625 0  0.734375 0.015625 0  0.7421875 0.015625 0  0.75 0.015625 0  0.7578125 0.015625 0  0.765625 0.015625 0  0.7734375 0.015625 0  0.78125 0.015625 0  0.7890625 0.015625 0  0.796875 0.015625 0  0.8046875 0.015625 0  0.8125 0.015625 0  0.8203125 0.015625 0  0.828125 0.015625 0  0.8359375 0.015625 0  0.84375 0.015625 0  0.8515625 0.015625 0  0.859375 0.015625 0  0.8671875 0.015625 0  0.875 0.015625 0  0.8828125 0.015625 0  0.890625 0.015625 0  0.8984375 0.015625 0  0.90625 0.015625 0  0.9140625 0.015625 0  0.921875 0.015625 0  0.9296875 0.015625 0  0.9375 0.015625 0  0.9453125 0.015625 0  0.953125 0.015625 0  0.9609375 0.015625 0  0.96875 0.015625 0  0.9765625 0.015625 0  0.984375 0.015625 0  0.9921875 0.015625 0  1 0.015625 0  0 0.0234375 0  0.0078125 0.0234375 0  0.015625 0.0234375 0  0.0234375 0.0234375 0  0.03125 0.0234375 0  0.0390625 0.0234375 0  0.046875 0.0234375 0  0.0546875 0.0234375 0  0.0625 0.0234375 0  0.0703125 0.0234375 0  0.078125 0.0234375 0  0.0859375 0.0234375 0  0.09375 0.0234375 0  0.1015625 0.0234375 0  0.109375 0.0234375 0  0.1171875 0.0234375 0  0.125 0.0234375 0  0.1328125 0.0234375 0  0.140625 0.0234375 0  0.1484375 0.0234375 0  0.15625 0.0234375 0  0.1640625 0.0234375 0  0.171875 0.0234375 0  0.1796875 0.0234375 0  0.1875 0.0234375 0  0.1953125 0.0234375 0  0.203125 0.0234375 0  0.2109375 0.0234375 0  0.21875 0.0234375 0  0.2265625 0.0234375 0  0.234375 0.0234375 0  0.2421875 0.0234375 0  0.25 0.0234375 0  0.2578125 0.0234375 0  0.265625 0.0234375 0  0.2734375 0.0234375 0  0.28125 0.0234375 0  0.2890625 0.0234375 0  0.296875 0.0234375 0  0.3046875 0.0234375 0  0.3125 0.0234375 0  0.3203125 0.0234375 0  0.328125 0.0234375 0  0.3359375 0.0234375 0  0.34375 0.0234375 0  0.3515625 0.0234375 0  0.359375 0.0234375 0  0.3671875 0.0234375 0  0.375 0.0234375 0  0.3828125 0.0234375 0  0.390625 0.0234375 0  0.3984375 0.0234375 0  0.40625 0.0234375 0  0.4140625 0.0234375 0  0.421875 0.0234375 0  0.4296875 0.0234375 0  0.4375 0.0234375 0  0.4453125 0.0234375 0  0.453125 0.0234375 0  0.4609375 0.0234375 0  0.46875 0.0234375 0  0.4765625 0.0234375 0  0.484375 0.0234375 0  0.4921875 0.0234375 0  0.5 0.0234375 0  0.5078125 0.0234375 0  0.515625 0.0234375 0  0.5234375 0.0234375 0  0.53125 0.0234375 0  0.5390625 0.0234375 0  0.546875 0.0234375 0  0.5546875 0.0234375 0  0.5625 0.0234375 0  0.5703125 0.0234375 0  0.578125 0.0234375 0  0.5859375 0.0234375 0  0.59375 0.0234375 0  0.6015625 0.0234375 0  0.609375 0.0234375 0  0.6171875 0.0234375 0  0.625 0.0234375 0  0.6328125 0.0234375 0  0.640625 0.0234375 0  0.6484375 0.0234375 0  0.65625 0.0234375 0  0.6640625 0.0234375 0  0.671875 0.0234375 0  0.6796875 0.0234375 0  0.6875 0.0234375 0  0.6953125 0.0234375 0  0.703125 0.0234375 0  0.7109375 0.0234375 0  0.71875 0.0234375 0  0.7265625 0.0234375 0  0.734375 0.0234375 0  0.7421875 0.0234375 0  0.75 0.0234375 0  0.7578125 0.0234375 0  0.765625 0.0234375 0  0.7734375 0.0234375 0  0.78125 0.0234375 0  0.7890625 0.0234375 0  0.796875 0.0234375 0  0.8046875 0.0234375 0  0.8125 0.0234375 0  0.8203125 0.0234375 0  0.828125 0.0234375 0  0.8359375 0.0234375 0  0.84375 0.0234375 0  0.8515625 0.0234375 0  0.859375 0.0234375 0  0.8671
[...]
<CellData  Scalars="f_3487"> 
<DataArray  type="Float64"  Name="f_3487"  format="ascii">4.2410614046700114e-12   4.2104789929481919e-12   9.8131569437909638e-12   1.2923976651759467e-11   1.8105348524854276e-11   2.6697839132581574e-11   2.9097157613180385e-11   4.5864573276131268e-11   4.2761431936670622e-11   7.0373893456873879e-11   5.9064627689149568e-11   1.0016404097235955e-10   7.7966914963613591e-11   1.3516124206995700e-10   9.9422271784211271e-11   1.7527959847149504e-10   1.2337858747694793e-10   2.2042115707080228e-10   1.4977778022141294e-10   2.7047607087824490e-10   1.7855592986022891e-10   3.2532281803485809e-10   2.0964342588316036e-10   3.8482846450003869e-10   2.4296513009519728e-10   4.4884896319678235e-10   2.7844055340602695e-10   5.1722948539358387e-10   3.1598404611773499e-10   5.8980478158588407e-10   3.5550500114274563e-10   6.6639956981316703e-10   3.9690806956479961e-10   7.4682894981541348e-10   4.4009338793130688e-10   8.3089884153681772e-10   4.8495681668984089e-10   9.1840644664931493e-10   5.3139018916236546e-10   1.0091407317723575e-09   5.7928157038622071e-10   1.1028829321045523e-09   6.2851552524791351e-10   1.1994070741250203e-09   6.7897339517008127e-10   1.2984805161251027e-09   7.3053358270799988e-10   1.3998645050834686e-09   7.8307184336564736e-10   1.5033147486320566e-09   8.3646158390455029e-10   1.6085820006280857e-09   8.9057416637490363e-10   1.7154126589340138e-09   9.4527921722236587e-10   1.8235493738645509e-09   1.0004449406283320e-09   1.9327316659687932e-09   1.0559384353746921e-09   2.0426965514809777e-09   1.1116260144318437e-09   2.1531791740347286e-09   1.1673735264967618e-09   2.2639134409827302e-09   1.2230466787294836e-09   2.3746326629327080e-09   1.2785113598918873e-09   2.4850701947960286e-09   1.3336339630488396e-09   2.5949600769165646e-09   1.3882817071589018e-09   2.7040376745892016e-09   1.4423229566497427e-09   2.8120403145851557e-09   1.4956275383666088e-09   2.9187079169651169e-09   1.5480670548812616e-09   3.0237836208126599e-09   1.5995151937021508e-09   3.1270144021782545e-09   1.6498480313706262e-09   3.2281516830324602e-09   1.6989443319299536e-09   3.3269519293732118e-09   1.7466858388010664e-09   3.4231772374333949e-09   1.7929575596378387e-09   3.5165959061900398e-09   1.8376480432237190e-09   3.6069829951442426e-09   1.8806496479448321e-09   3.6941208657682945e-09   1.9218588009949906e-09   3.7777997054551608e-09   1.9611762478418524e-09   3.8578180325466144e-09   1.9985072913506065e-09   3.9339831814466171e-09   2.0337620198122715e-09   4.0061117665374684e-09   2.0668555235217677e-09   4.0740301236047786e-09   2.0977080993577327e-09   4.1375747279972005e-09   2.1262454426890307e-09   4.1965925884197645e-09   2.1523988264397444e-09   4.2509416152187343e-09   2.1761052665544524e-09   4.3004909626045672e-09   2.1973076737490322e-09   4.3451213435825475e-09   2.2159549910744924e-09   4.3847253172785533e-09   2.2320023167764521e-09   4.4192075476689758e-09   2.2454110125932205e-09   4.4484850329841589e-09   2.2561487967176215e-09   4.4724873057647988e-09   2.2641898215780243e-09   4.4911566023665676e-09   2.2695147361027025e-09   4.5044480020866250e-09   2.2721107323267164e-09   4.5123295353510045e-09   2.2719715761809038e-09   4.5147822606114562e-09   2.2690976225698890e-09   4.5118003099288542e-09   2.2634958143581587e-09   4.5033909031252567e-09   2.2551796657996112e-09   4.4895743302060320e-09   2.2441692298190478e-09   4.4703839026743349e-09   2.2304910497564306e-09   4.4458658730434130e-09   2.2141780953444440e-09   4.4160793235588931e-09   2.1952696832798425e-09   4.3810960237300768e-09   2.1738113824628880e-09   4.3410002575176869e-09   2.1498549042512500e-09   4.2958886202582754e-09   2.1234579777014521e-09   4.2458697860512387e-09   2.0946842106525971e-09   4.1910642458091232e-09   2.0636029363078318e-09   4.1316040172525239e-09   2.0302890462464990e-09   4.0676323267248646e-09   1.9948228099405715e-09   3.9993032643060927e-09   1.9572896813335891e-09   3.9267814126187238e-09   1.9177800929712048e-09   3.8502414504155687e-09   1.8763892380612292e-09   3.7698677318821167e-09   1.8332168411080452e-09   3.6858538425399902e-09   1.7883669176755613e-09   3.5984021330348865e-09   1.7419475236996820e-09   3.5077232318384516e-09   1.6940704951779315e-09   3.4140355378369995e-09   1.6448511786492883e-09   3.3175646944407934e-09   1.5944081533508374e-09   3.2185430460702656e-09   1.5428629454116541e-09   3.1172090787035638e-09   1.4903397351134141e-09   3.0138068453971036e-09   1.4369650576400423e-09   2.9085853786900829e-09   1.3828674982056896e-09   2.8017980907756526e-09   1.3281773822403076e-09   2.6937021633072625e-09   1.2730264613571075e-09   2.5845579280812707e-09   1.2175475958831391e-09   2.4746282401061072e-09   1.1618744347528275e-09   2.3641778446648730e-09   1.1061410934255491e-09   2.2534727398303724e-09   1.0504818307379183e-09   2.1427795359113450e-09   9.9503072535243896e-10   2.0323648135118709e-09   9.3992135263719346e-10   1.9224944815916669e-09   8.8528646274126259e-10   1.8134331371625752e-09   8.3125766064217629e-10   1.7054434281515231e-09   7.7796508886187754e-10   1.5987854209263743e-09   7.2553711375228845e-10   1.4937159739350153e-09   6.7410001592528211e-10   1.3904881191433802e-09   6.2377768568352293e-10   1.2893504524959538e-09   5.7469132407581604e-10   1.1905465350247322e-09   5.2695915038618079e-10   1.0943143059092793e-09   4.8069611661382965e-10   1.0008855089616488e-09   4.3601362965729082e-10   9.1048513373276547e-10   3.9301928181914719e-10   8.2333087261284170e-10   3.5181659022579440e-10   7.3963259513309547e-10   3.1250474565125196e-10   6.5959184059021169e-10   2.7517837131491541e-10   5.8340133006246579e-10   2.3992729201928161e-10   5.1124449882478001e-10   2.0683631398128826e-10   4.4329504998250046e-10   1.7598501557622686e-10   3.7971653001156404e-10   1.4744754899683091e-10   3.2066192670058542e-10   1.2129245260401431e-10   2.6627328964904311e-10   9.7582473226837817e-11   2.1668137306500208e-10   7.6374396912119015e-11   1.7200529987606281e-10   5.7718885120227463e-11   1.3235224505141427e-10   4.1660310453928363e-11   9.7817134048012423e-11   2.8236579633728620e-11   6.8482348778714515e-11   1.7478916327405177e-11   4.4417426746875645e-11   9.4115348585527862e-12   2.5678725557103612e-11   4.0510018222677779e-12   1.2308995941336623e-11   1.4045337321973543e-12   4.3367391014741427e-12   1.0882546033246990e-12   1.7750778238704573e-12   2.0798670751348381e-11   1.7571600949844735e-11   3.4592918846425459e-11   3.4516032681076410e-11   5.3771842993718464e-11   5.3666020258553651e-11   7.8283041573805786e-11   7.8152575366844601e-11   1.0806433765452411e-10   1.0791328688703967e-10   1.4304197372317728e-10   1.4287419958518783e-10   1.8313020954448438e-10   1.8294945743739896e-10   2.2823129624513820e-10   2.2804126289508737e-10   2.7823560698966005e-10   2.7803997645228286e-10   3.3302184850601144e-10   3.3282430700604248e-10   3.9245732352973463e-10   3.9226156256529912e-10   4.5639823158203314e-10   4.5620794483552472e-10   5.2469000212761977e-10   5.2450887914690377e-10   5.9716765688734958e-10   5.9699937505342378e-10   6.7365619915994304e-10   6.7350441478800997e-10   7.5397102860340528e-10   7.5383936759440310e-10   8.3791838004006114e-10   8.3781042836162826e-10   9.2529578502585791e-10   9.2521507915246148e-10   1.0158925549225662e-09   1.0158425723725936e-09   1.1094902842076958e-09   1.1094744341800323e-09   1.2058633727244144e-09   1.2058849869473454e-09   1.3047795656598483e-09   1.3048418894056000e-09   1.4060005097711856e-09   1.4061066931736726e-09   1.5092823246228481e-09   1.5094354142008749e-09   1.6143761873760459e-09   1.6145791178853796e-09   1.7210289297197955e-09   1.7212845162776562e-09   1.8289836454245432e-09   1.8292945760156761e-09   1.9379803071910368e-09   1.9383491354462590e-09   2.0477563911275330e-09   2.0481855295336946e-09   2.1580475074600496e-09   2.1585392208885050e-09   2.2685880358217567e-09   2.2691444355204582e-09   2.3791117637314490e-09   2.3797348016378328e-09   2.4893525265732689e-09   2.4900439901534168e-09   2.5990448476257431e-09   2.5998063550220927e-09   2.7079245764853108e-09   2.7087575722548031e-09   2.8157295244755352e-09   2.8166352756551010e-09   2.9222000953423467e-09   2.9231796880819322e-09   3.0270799098668571e-09   3.0281342464309507e-09   3.1301164226822305e-09   3.1312462190450287e-09   3.2310615301203930e-09   3.2322673139449958e-09   3.3296721672026349e-09   3.3309542764138213e-09   3.4257108927418103e-09   3.4270694744243361e-09   3.5189464607673615e-09   3.5203814707847834e-09   3.6091543772308509e-09   3.6106655801356697e-09   3.6961174403958159e-09   3.6977044099431282e-09   3.7796262637543300e-09   3.7812883838554554e-09   3.8594797800402823e-09   3.8612162462602495e-09   3.9354857253619444e-09   3.9372955468346146e-09   4.0074611021599031e-09   4.0093431039923979e-09   4.0752326197058011e-09   4.0771854459147860e-09   4.1386371113718838e-09   4.1406592282149663e-09   4.1975219275689938e-09   4.1996116273039712e-09   4.2517453032091089e-09   4.2539007084264304e-09   4.3011766991570715e-09   4.3033957673592712e-09   4.3456971164242550e-09   4.3479776452366546e-09   4.3851993827977732e-09   4.3875390153657497e-09   4.4195884109294683e-09   4.4219846418464947e-09   4.4487814271382595e-09   4.4512316087973014e-09   4.4727081709180198e-09   4.4752095199682270e-09   4.4913110639414437e-09   4.4938606684295045e-09   4.5045453487393431e-09   4.5071401753168142e-09   4.5123791964922672e-09   4.5150160980209824e-09   4.5147937835851498e-09   4.5174695070751727e-09   4.5117833369038513e-09   4.5144945316468636e-09   4.5033551477549579e-09   4.5060983737277982e-09   4.4895295541113165e-09   4.4923012906970337e-09   4.4703398918068162e-09   4.4731365464651490e-09   4.4458324139846927e-09   4.4486503314518761e-09   4.4160661798140742e-09   4.4189016511482175e-09   4.3811129120697994e-09   4.3839621841207156e-09   4.3410568244286756e-09   4.3439161091421809e-09   4.2959944185557935e-09   4.2988599026003706e-09   4.2460342517115696e-09   4.2489021059942792e-09   4.1912966750764091e-09   4.1941630645394918e-09   4.1319135440740565e-09   4.1347746371480622e-09   4.0680279005755972e-09   4.0708798790214708e-09   3.9997936284429203e-09   4.0026326968896949e-09   3.9273750828253116e-09   3.9301974783979280e-09   3.8509466942909537e-09   3.8537486961081122e-09   3.7706925487154902e-09   3.7734704872724469e-09   3.6868059438231652e-09   3.6895562103434306e-09   3.5994889236598504e-09   3.6022079791758487e-09   3.5089517920222158e-09   3.5116361763691813e-09   3.4154126058179694e-09   3.4180589464813963e-09   3.3190966499904543e-09   3.3217016705552719e-09   3.2202358948535122e-09   3.2227964234624642e-09   3.1190684375283572e-09   3.1215814148573371e-09   3.0158379283877401e-09   3.0183004155774048e-09   2.9107929844142643e-09   2.9132021704410028e-09   2.8041865903573022e-09   2.8065397993628857e-09   2.6962754895507782e-09   2.6985701875866753e-09   2.5873195656279262e-09   2.5895533672231935e-09   2.4775812166519775e-09   2.4797518909532804e-09   2.3673247232531355e-09   2.3694301997582443e-09   2.2568156122301763e-09   2.2588539861544635e-09   2.1463200171043258e-09   2.1482895543292244e-09   2.0361040372866642e-09   2.0380031788396752e-09   1.9264330972537398e-09   1.9282604634129217e-09   1.8175713073654324e-09   1.8193257012722158e-09   1.7097808278373822e-09   1.7114612386607383e-09   1.6033212373770603e-09   1.6049268430034619e-09   1.4984489079190504e-09   1.4999790772180767e-09   1.3954163871403952e-09   1.3968706816553680e-09   1.2944717899809071e-09   1.2958499652624174e-09   1.1958582007803590e-09   1.1971602071573592e-09   1.0998130873304384e-09   1.1010390702914440e-09   1.0065677283088538e-09   1.0077180283517486e-09   9.1634665528651255e-10   9.1742180740379492e-10   8.2936711065622838e-10   8.3036784338499232e-10   7.4583852268530497e-10   7.4676575680579619e-10   6.6596199879233581e-10   6.6681684573057666e-10   5.8992983809854272e-10   5.9071359812670436e-10   5.1792506421212259e-10   5.1863922458104268e-10   4.5012097904460692e-10   4.5076721224206965e-10   3.8668073827118460e-10   3.8726090073290626e-10   3.2775694885197120e-10   3.2827308056876227e-10   2.7349128865366399e-10   2.7394561444391918e-10   2.2401414773383471e-10   2.2440908138266361e-10   1.7944429005777025e-10   1.7978244334251163e-10   1.3988853317178243e-10   1.4017273325712603e-10   1.0544144121886222e-10   1.0567476261328601e-10   7.6185022984243760e-11   7.6370845464893373e-11   5.2188419887093138e-11   5.2330534263891017e-11   3.3507556317016550e-11   3.3610361529336483e-11   2.0184701023304038e-11   2.0253583133911153e-11   1.2247847263501713e-11   1.2289938343656979e-11   9.7098188493647722e-12   9.7355669941161675e-12   9.4118534166975309e-12   1.2594122529777428e-11   5.0054433685496546e-11   4.1289083070873779e-11   6.9215193385268655e-11   6.9132046094062368e-11   9.3698150998730248e-11   9.3589951591821970e-11   1.2343764002746684e-10   1.2330813138972144e-10   1.5835862583383607e-10   1.5821154390036545e-10   1.9837491110454514e-10   1.9821392076855485e-10   2.4338867529026798e-10   2.4321736358659831e-10   2.9329042424481032e-10   2.9311231355863035e-10   3.4795911445599391e-10   3.4777768131270241e-10   4.0726237127129710e-10   4.0708106119262717e-10   4.7105676718533320e-10   4.7087900305548702e-10   5.3918814347716895e-10   5.3901732831089508e-10   6.1149196641815855e-10   6.1133148214948876e-10   6.8779371320185852e-10   6.8764691682159151e-10   7.6790928460464355e-10   7.6777950260700234e-10   8.5164544230774561e-10   8.5153596406697062e-10   9.3880026923149779e-10   9.3871433973704327e-10   1.0291636515070789e-09   1.0291044637113167e-09   1.1225177806283454e-09   1.1224884676330193e-09   1.2186376745792115e-09   1.2186413017297619e-09   1.3172917165420123e-09   1.3173312735776576e-09   1.4182422099125145e-09   1.4183206031864289e-09   1.5212459481315428e-09   1.5213659930278440e-09   1.6260547981108304e-09   1.6262192115961196e-09   1.7324162956689315e-09   1.7326276891076379e-09   1.8400742516349766e-09   1.8403351238410641e-09   1.9487693670548710e-09   1.9490820976539780e-09   2.0582398561529818e-09   2.0586066992039979e-09   2.1682220753468923e-09   2.1686451533207452e-09   2.2784511569412577e-09   2.2789324550084447e-09   2.3886616458351990e-09   2.3892030065896224e-09   2.4985881379023636e-09   2.4991912563284234e-09   2.6079659181651691e-09   2.6086323371450316e-09   2.7165315976453903e-09   2.7172627037190460e-09   2.8240237468947903e-09   2.8248207665566159e-09   2.9301835250644107e-09   2.9310475213782250e-09   3.0347553026761494e-09   3.0356871724047587e-09   3.1374872768345874e-09   3.1384877479423904e-09   3.2381320772503785e-09   3.2392017068738195e-09   3.3364473616519908e-09   3.3375865345144332e-09   3.4321963990420912e-09   3.4334053263345589e-09   3.5251486397055292e-09   3.5264273583428677e-09   3.6150802700893885e-09   3.6164286425795315e-09   3.7017747517246840e-09   3.7031924662939868e-09   3.7850233425437812e-09   3.7865099138285221e-09   3.8646255994480240e-09   3.8661803696338251e-09   3.9403898609156824e-09   3.9420120013087787e-09   4.0121337085615743e-09   4.0138222215391859e-09   4.0796844063452515e-09   4.0814381278272559e-09   4.1428793164680086e-09   4.1446969187867799e-09   4.2015662910521285e-09   4.2034462862378682e-09   4.2556040385528168e-09   4.2575447819710903e-09   4.3048624639087851e-09   4.3068621584058210e-09   4.3492229819125789e-09   4.3512796822343163e-09   4.3885788026471957e-09   4.3906904204173660e-09   4.4228351888096646e-09   4.4249994975925799e-09   4.4519096837423045e-09   4.4541243247010446e-09   4.4757323099381835e-09   4.4779947977704460e-09   4.4942457377240344e-09   4.4965534667794998e-09   4.5074054230930418e-09   4.5097556740474401e-09   4.5151797150889238e-09   4.5175696616486424e-09   4.5175499319883133e-09   4.5199766480499963e-09   4.5145104061933449e-09   4.5169708731831642e-09   4.5060684979300180e-09   4.5085596123563672e-09   4.4922445774261782e-09   4.4947631586928308e-09   4.4730719757819718e-09   4.4756147742126282e-09   4.4485969047796824e-09   4.4511606097448290e-09   4.4188783453925658e-09   4.4214595936859538e-09   4.3839879058415255e-09   4.3865832900728766e-09   4.3440096488929102e-09   4.3466157261596968e-09   4.2990398895398400e-09   4.3016531900050523e-09   4.2491869628831889e-09   4.2518039986049758e-09   4.1945709632270368e-09   4.1971882368655075e-09   4.1353234546619006e-09   4.1379374684170393e-09   4.0715871543538585e-09   4.0741944186436085e-09   4.0035155886027946e-09   4.0061126310131203e-09   3.9312727231296547e-09   3.9338560971102390e-09   3.8550325680906138e-09   3.8575988616897007e-09   3.7749787589614933e-09   3.7775246034673705e-09   3.6913041142450898e-09   3.6938261927022796e-09   3.6042101709680305e-09   3.6067052266431781e-09   3.5139066994073049e-09   3.5163715439557590e-09   3.4206111977641314e-09   3.4230427193964662e-09   3.3245483682495386e-09   3.3269435396551775e-09   3.2259495760436268e-09   3.2283054620053729e-09   3.1250522919592246e-09   3.1273660569367347e-09   3.0220995206012673e-09   3.0243684358872671e-09   2.9173392150106600e-09   2.9195606657850368e-09   2.8110236796650919e-09   2.8131951715620189e-09   2.7034089626710272e-09   2.7055281283265036e-09   2.5947542392979228e-09   2.5968188442577463e-09   2.4853211877279272e-09   2.4873291363349639e-09   2.3753733588823776e-09   2.3773226996156256e-09   2.2651755417733431e-09   2.2670644722700624e-09   2.1549931257954160e-09   2.1568199975570920e-09   2.0450914616030739e-09   2.0468547842714093e-09   1.9357352221054298e-09   1.9374336673274820e-09   1.8271877650002060e-09   1.8288201699519044e-09   1.7197104985132589e-09   1.7212758689596774e-09   1.6135622517741583e-09   1.6150597647185382e-09   1.5089986513356566e-09   1.5104276572564686e-09   1.4062715053113011e-09   1.4076315300115526e-09   1.3056281967046431e-09   1.3069189426594087e-09   1.2073110871421896e-09   1.2085324345336351e-09   1.1115569326464637e-09   1.1127089398925962e-09   1.0185963126074390e-09   1.0196792166110352e-09   9.2865307344899876e-10   9.2966728937491810e-10   8.4194378808143834e-10   8.4288990890800980e-10   7.5867723250277264e-10   7.5955602822580006e-10   6.7905388059286554e-10   6.7986629725653919e-10   6.0326541819203960e-10   6.0401257680723740e-10   5.3149427744541050e-10   5.3217747294233832e-10   4.6391319226650874e-10   4.6453389268412050e-10   4.0068477564192739e-10   4.0124462184213702e-10   3.4196111931833705e-10   3.4246192567275682e-10   2.8788341621347981e-10   2.8832717288247482e-10   2.3858160556699631e-10   2.3897048336352272e-10   1.9417404044096809e-10   1.9451039978894244e-10   1.5476717662943505e-10   1.5505358296463183e-10   1.2045528122845097e-10   1.2069453061970799e-10   9.1320158047546822e-11   9.1515319106347086e-11   6.7430885662034992e-11   6.7585367657129084e-11   4.8843562404176168e-11   4.8961225967488766e-11   3.5601052257042567e-11   3.5686390025489912e-11   2.7732732685333595e-11   2.7791165524924088e-11   2.5254297299847630e-11   2.5292651344791058e-11   2.8167995217842199e-11   2.8195124751878561e-11   2.7821697516351275e-11   3.6491855194671981e-11   9.2311886138041379e-11   7.5308534077507137e-11   1.1678426234298065e-10   1.1669632329675642e-10   1.4649404494653782e-10   1.4638488537207345e-10   1.8136318672504366e-10   1.8123596983296936e-10   2.2130410917407433e-10   2.2116221586339958e-10   2.6621841538638522e-10   2.6606522237072073e-10   3.1599644817905504e-10   3.1583529062258884e-10   3.7051724860786597e-10   3.7035141344792034e-10   4.2964869359132366e-10   4.2948142169037157e-10   4.9324772862896297e-10   4.9308221986042111e-10   5.6116066174732991e-10   5.6100007972709871e-10   6.3322350246583687e-10   6.3307097727305775e-10   7.0926233675863339e-10   7.0912096531177087e-10   7.8909373248898634e-10   7.8896657684383187e-10   8.7252517169