<?xml version="1.0"?>
<VTKFile type="UnstructuredGrid"  version="0.1"  >
<UnstructuredGrid>
<Piece  NumberOfPoints="16641" NumberOfCells="32768">
<Points>
<DataArray  type="Float64"  NumberOfComponents="3"  format="ascii">0 0 0  0.0078125 0 0  0.015625 0 0  0.0234375 0 0  0.03125 0 0  0.0390625 0 0  0.046875 0 0  0.0546875 0 0  0.0625 0 0  0.0703125 0 0  0.078125 0 0  0.0859375 0 0  0.09375 0 0  0.1015625 0 0  0.109375 0 0  0.1171875 0 0  0.125 0 0  0.1328125 0 0  0.140625 0 0  0.1484375 0 0  0.15625 0 0  0.1640625 0 0  0.171875 0 0  0.1796875 0 0  0.1875 0 0  0.1953125 0 0  0.203125 0 0  0.2109375 0 0  0.21875 0 0  0.2265625 0 0  0.234375 0 0  0.2421875 0 0  0.25 0 0  0.2578125 0 0  0.265625 0 0  0.2734375 0 0  0.28125 0 0  0.2890625 0 0  0.296875 0 0  0.3046875 0 0  0.3125 0 0  0.3203125 0 0  0.328125 0 0  0.3359375 0 0  0.34375 0 0  0.3515625 0 0  0.359375 0 0  0.3671875 0 0  0.375 0 0  0.3828125 0 0  0.390625 0 0  0.3984375 0 0  0.40625 0 0  0.4140625 0 0  0.421875 0 0  0.4296875 0 0  0.4375 0 0  0.4453125 0 0  0.453125 0 0  0.4609375 0 0  0.46875 0 0  0.4765625 0 0  0.484375 0 0  0.4921875 0 0  0.5 0 0  0.5078125 0 0  0.515625 0 0  0.5234375 0 0  0.53125 0 0  0.5390625 0 0  0.546875 0 0  0.5546875 0 0  0.5625 0 0  0.5703125 0 0  0.578125 0 0  0.5859375 0 0  0.59375 0 0  0.6015625 0 0  0.609375 0 0  0.6171875 0 0  0.625 0 0  0.6328125 0 0  0.640625 0 0  0.6484375 0 0  0.65625 0 0  0.6640625 0 0  0.671875 0 0  0.6796875 0 0  0.6875 0 0  0.6953125 0 0  0.703125 0 0  0.7109375 0 0  0.71875 0 0  0.7265625 0 0  0.734375 0 0  0.7421875 0 0  0.75 0 0  0.7578125 0 0  0.765625 0 0  0.7734375 0 0  0.78125 0 0  0.7890625 0 0  0.796875 0 0  0.8046875 0 0  0.8125 0 0  0.8203125 0 0  0.828125 0 0  0.8359375 0 0  0.84375 0 0  0.8515625 0 0  0.859375 0 0  0.8671875 0 0  0.875 0 0  0.8828125 0 0  0.890625 0 0  0.8984375 0 0  0.90625 0 0  0.9140625 0 0  0.921875 0 0  0.9296875 0 0  0.9375 0 0  0.9453125 0 0  0.953125 0 0  0.9609375 0 0  0.96875 0 0  0.9765625 0 0  0.984375 0 0  0.9921875 0 0  1 0 0  0 0.0078125 0  0.0078125 0.0078125 0  0.015625 0.0078125 0  0.0234375 0.0078125 0  0.03125 0.0078125 0  0.0390625 0.0078125 0  0.046875 0.0078125 0  0.0546875 0.0078125 0  0.0625 0.0078125 0  0.0703125 0.0078125 0  0.078125 0.0078125 0  0.0859375 0.0078125 0  0.09375 0.0078125 0  0.1015625 0.0078125 0  0.109375 0.0078125 0  0.1171875 0.0078125 0  0.125 0.0078125 0  0.1328125 0.0078125 0  0.140625 0.0078125 0  0.1484375 0.0078125 0  0.15625 0.0078125 0  0.1640625 0.0078125 0  0.171875 0.0078125 0  0.1796875 0.0078125 0  0.1875 0.0078125 0  0.1953125 0.0078125 0  0.203125 0.0078125 0  0.2109375 0.0078125 0  0.21875 0.0078125 0  0.2265625 0.0078125 0  0.234375 0.0078125 0  0.2421875 0.0078125 0  0.25 0.0078125 0  0.2578125 0.0078125 0  0.265625 0.0078125 0  0.2734375 0.0078125 0  0.28125 0.0078125 0  0.2890625 0.0078125 0  0.296875 0.0078125 0  0.3046875 0.0078125 0  0.3125 0.0078125 0  0.3203125 0.0078125 0  0.328125 0.0078125 0  0.3359375 0.0078125 0  0.34375 0.0078125 0  0.3515625 0.0078125 0  0.359375 0.0078125 0  0.3671875 0.0078125 0  0.375 0.0078125 0  0.3828125 0.0078125 0  0.390625 0.0078125 0  0.3984375 0.0078125 0  0.40625 0.0078125 0  0.4140625 0.0078125 0  0.421875 0.0078125 0  0.4296875 0.0078125 0  0.4375 0.0078125 0  0.4453125 0.0078125 0  0.453125 0.0078125 0  0.4609375 0.0078125 0  0.46875 0.0078125 0  0.4765625 0.0078125 0  0.484375 0.0078125 0  0.4921875 0.0078125 0  0.5 0.0078125 0  0.5078125 0.0078125 0  0.515625 0.0078125 0  0.5234375 0.0078125 0  0.53125 0.0078125 0  0.5390625 0.0078125 0  0.546875 0.0078125 0  0.5546875 0.0078125 0  0.5625 0.0078125 0  0.5703125 0.0078125 0  0.578125 0.0078125 0  0.5859375 0.0078125 0  0.59375 0.0078125 0  0.6015625 0.0078125 0  0.609375 0.0078125 0  0.6171875 0.0078125 0  0.625 0.0078125 0  0.6328125 0.0078125 0  0.640625 0.0078125 0  0.6484375 0.0078125 0  0.65625 0.0078125 0  0.6640625 0.0078125 0  0.671875 0.0078125 0  0.6796875 0.0078125 0  0.6875 0.0078125 0  0.6953125 0.0078125 0  0.703125 0.0078125 0  0.7109375 0.0078125 0  0.71875 0.0078125 0  0.7265625 0.0078125 0  0.734375 0.0078125 0  0.7421875 0.0078125 0  0.75 0.0078125 0  0.7578125 0.0078125 0  0.765625 0.0078125 0  0.7734375 0.0078125 0  0.78125 0.0078125 0  0.7890625 0.0078125 0  0.796875 0.0078125 0  0.8046875 0.0078125 0  0.8125 0.0078125 0  0.8203125 0.0078125 0  0.828125 0.0078125 0  0.8359375 0.0078125 0  0.84375 0.0078125 0  0.8515625 0.0078125 0  0.859375 0.0078125 0  0.8671875 0.0078125 0  0.875 0.0078125 0  0.8828125 0.0078125 0  0.890625 0.0078125 0  0.8984375 0.0078125 0  0.90625 0.0078125 0  0.9140625 0.0078125 0  0.921875 0.0078125 0  0.9296875 0.0078125 0  0.9375 0.0078125 0  0.9453125 0.0078125 0  0.953125 0.0078125 0  0.9609375 0.0078125 0  0.96875 0.0078125 0  0.9765625 0.0078125 0  0.984375 0.0078125 0  0.9921875 0.0078125 0  1 0.0078125 0  0 0.015625 0  0.0078125 0.015625 0  0.015625 0.015625 0  0.0234375 0.015625 0  0.03125 0.015625 0  0.0390625 0.015625 0  0.046875 0.015625 0  0.0546875 0.015625 0  0.0625 0.015625 0  0.0703125 0.015625 0  0.078125 0.015625 0  0.0859375 0.015625 0  0.09375 0.015625 0  0.1015625 0.015625 0  0.109375 0.015625 0  0.1171875 0.015625 0  0.125 0.015625 0  0.1328125 0.015625 0  0.140625 0.015625 0  0.1484375 0.015625 0  0.15625 0.015625 0  0.1640625 0.015625 0  0.171875 0.015625 0  0.1796875 0.015625 0  0.1875 0.015625 0  0.1953125 0.015625 0  0.203125 0.015625 0  0.2109375 0.015625 0  0.21875 0.015625 0  0.2265625 0.015625 0  0.234375 0.015625 0  0.2421875 0.015625 0  0.25 0.015625 0  0.2578125 0.015625 0  0.265625 0.015625 0  0.2734375 0.015625 0  0.28125 0.015625 0  0.2890625 0.015625 0  0.296875 0.015625 0  0.3046875 0.015625 0  0.3125 0.015625 0  0.3203125 0.015625 0  0.328125 0.015625 0  0.3359375 0.015625 0  0.34375 0.015625 0  0.3515625 0.015625 0  0.359375 0.015625 0  0.3671875 0.015625 0  0.375 0.015625 0  0.3828125 0.015625 0  0.390625 0.015625 0  0.3984375 0.015625 0  0.40625 0.015625 0  0.4140625 0.015625 0  0.421875 0.015625 0  0.4296875 0.015625 0  0.4375 0.015625 0  0.4453125 0.015625 0  0.453125 0.015625 0  0.4609375 0.015625 0  0.46875 0.015625 0  0.4765625 0.015625 0  0.484375 0.015625 0  0.4921875 0.015625 0  0.5 0.015625 0  0.5078125 0.015625 0  0.515625 0.015625 0  0.5234375 0.015625 0  0.53125 0.015625 0  0.5390625 0.015625 0  0.546875 0.015625 0  0.5546875 0.015625 0  0.5625 0.015625 0  0.5703125 0.015625 0  0.578125 0.015625 0  0.5859375 0.015625 0  0.59375 0.015625 0  0.6015625 0.015625 0  0.609375 0.015625 0  0.6171875 0.015625 0  0.625 0.015625 0  0.6328125 0.015625 0  0.640625 0.015625 0  0.6484375 0.015625 0  0.65625 0.015625 0  0.6640625 0.015625 0  0.671875 0.015625 0  0.6796875 0.015625 0  0.6875 0.015625 0  0.6953125 0.015625 0  0.703125 0.015625 0  0.7109375 0.015625 0  0.71875 0.015625 0  0.7265625 0.015625 0  0.734375 0.015625 0  0.7421875 0.015625 0  0.75 0.015625 0  0.7578125 0.015625 0  0.765625 0.015625 0  0.7734375 0.015625 0  0.78125 0.015625 0  0.7890625 0.015625 0  0.796875 0.015625 0  0.8046875 0.015625 0  0.8125 0.015625 0  0.8203125 0.015625 0  0.828125 0.015625 0  0.8359375 0.015625 0  0.84375 0.015625 0  0.8515625 0.015625 0  0.859375 0.015625 0  0.8671875 0.015625 0  0.875 0.015625 0  0.8828125 0.015625 0  0.890625 0.015625 0  0.8984375 0.015625 0  0.90625 0.015625 0  0.9140625 0.015625 0  0.921875 0.015625 0  0.9296875 0.015625 0  0.9375 0.015625 0  0.9453125 0.015625 0  0.953125 0.015625 0  0.9609375 0.015625 0  0.96875 0.015625 0  0.9765625 0.015625 0  0.984375 0.015625 0  0.9921875 0.015625 0  1 0.015625 0  0 0.0234375 0  0.0078125 0.0234375 0  0.015625 0.0234375 0  0.0234375 0.0234375 0  0.03125 0.0234375 0  0.0390625 0.0234375 0  0.046875 0.0234375 0  0.0546875 0.0234375 0  0.0625 0.0234375 0  0.0703125 0.0234375 0  0.078125 0.0234375 0  0.0859375 0.0234375 0  0.09375 0.0234375 0  0.1015625 0.0234375 0  0.109375 0.0234375 0  0.1171875 0.0234375 0  0.125 0.0234375 0  0.1328125 0.0234375 0  0.140625 0.0234375 0  0.1484375 0.0234375 0  0.15625 0.0234375 0  0.1640625 0.0234375 0  0.171875 0.0234375 0  0.1796875 0.0234375 0  0.1875 0.0234375 0  0.1953125 0.0234375 0  0.203125 0.0234375 0  0.2109375 0.0234375 0  0.21875 0.0234375 0  0.2265625 0.0234375 0  0.234375 0.0234375 0  0.2421875 0.0234375 0  0.25 0.0234375 0  0.2578125 0.0234375 0  0.265625 0.0234375 0  0.2734375 0.0234375 0  0.28125 0.0234375 0  0.2890625 0.0234375 0  0.296875 0.0234375 0  0.3046875 0.0234375 0  0.3125 0.0234375 0  0.3203125 0.0234375 0  0.328125 0.0234375 0  0.3359375 0.0234375 0  0.34375 0.0234375 0  0.3515625 0.0234375 0  0.359375 0.0234375 0  0.3671875 0.0234375 0  0.375 0.0234375 0  0.3828125 0.0234375 0  0.390625 0.0234375 0  0.3984375 0.0234375 0  0.40625 0.0234375 0  0.4140625 0.0234375 0  0.421875 0.0234375 0  0.4296875 0.0234375 0  0.4375 0.0234375 0  0.4453125 0.0234375 0  0.453125 0.0234375 0  0.4609375 0.0234375 0  0.46875 0.0234375 0  0.4765625 0.0234375 0  0.484375 0.0234375 0  0.4921875 0.0234375 0  0.5 0.0234375 0  0.5078125 0.0234375 0  0.515625 0.0234375 0  0.5234375 0.0234375 0  0.53125 0.0234375 0  0.5390625 0.0234375 0  0.546875 0.0234375 0  0.5546875 0.0234375 0  0.5625 0.0234375 0  0.5703125 0.0234375 0  0.578125 0.0234375 0  0.5859375 0.0234375 0  0.59375 0.0234375 0  0.6015625 0.0234375 0  0.609375 0.0234375 0  0.6171875 0.0234375 0  0.625 0.0234375 0  0.6328125 0.0234375 0  0.640625 0.0234375 0  0.6484375 0.0234375 0  0.65625 0.0234375 0  0.6640625 0.0234375 0  0.671875 0.0234375 0  0.6796875 0.0234375 0  0.6875 0.0234375 0  0.6953125 0.0234375 0  0.703125 0.0234375 0  0.7109375 0.0234375 0  0.71875 0.0234375 0  0.7265625 0.0234375 0  0.734375 0.0234375 0  0.7421875 0.0234375 0  0.75 0.0234375 0  0.7578125 0.0234375 0  0.765625 0.0234375 0  0.7734375 0.0234375 0  0.78125 0.0234375 0  0.7890625 0.0234375 0  0.796875 0.0234375 0  0.8046875 0.0234375 0  0.8125 0.0234375 0  0.8203125 0.0234375 0  0.828125 0.0234375 0  0.8359375 0.0234375 0  0.84375 0.0234375 0  0.8515625 0.0234375 0  0.859375 0.0234375 0  0.8671
[...]
<CellData  Scalars="f_7936"> 
<DataArray  type="Float64"  Name="f_7936"  format="ascii">9.9781070186247204e-13   9.9501070544460883e-13   2.3668502618837827e-12   3.1250748307482696e-12   4.4173325345128363e-12   6.5380614139754876e-12   7.1441591271786645e-12   1.1307536519897597e-11   1.0540602771949776e-11   1.7421441041275606e-11   1.4598338762555635e-11   2.4864613515406920e-11   1.9307466075226396e-11   3.3618767835829796e-11   2.4656530555360215e-11   4.3662513609300868e-11   3.0632551377557447e-11   5.4971396470523219e-11   3.7221051031864704e-11   6.7517950518580214e-11   4.4406088880661919e-11   8.1271759991840693e-11   5.2170298257335743e-11   9.6199528971406299e-11   6.0494927046655258e-11   1.1226515850674268e-10   6.9359881663866566e-11   1.2942983079617683e-10   7.8743774343352034e-11   1.4765210013675552e-10   8.8623973629718008e-11   1.6688799040466562e-10   9.8976657953120482e-11   1.8709109881642046e-10   1.0977687216475622e-10   2.0821270571679693e-10   1.2099858689806151e-10   2.3020189013536044e-10   1.3261476060148850e-10   2.5300565082884583e-10   1.4459740409836258e-10   2.7656903249965671e-10   1.5691764750800716e-10   3.0083525690079645e-10   1.6954580935803637e-10   3.2574585847785078e-10   1.8245146772456472e-10   3.5124082422826957e-10   1.9560353320747729e-10   3.7725873742122884e-10   2.0897032357182426e-10   4.0373692481589994e-10   2.2251963986310701e-10   4.3061160701127026e-10   2.3621884379769677e-10   4.5781805157209943e-10   2.5003493626588125e-10   4.8529072850717746e-10   2.6393463670955419e-10   5.1296346777792787e-10   2.7788446322131344e-10   5.4076961836970265e-10   2.9185081313497525e-10   5.6864220861489468e-10   3.0580004394333541e-10   5.9651410730620894e-10   3.1969855428637543e-10   6.2431818525591071e-10   3.3351286490866128e-10   6.5198747683514709e-10   3.4720969928531946e-10   6.7945534123435900e-10   3.6075606377231529e-10   7.0665562286960230e-10   3.7411932711420007e-10   7.3352281068663763e-10   3.8726729903397068e-10   7.5999219592946867e-10   4.0016830779854141e-10   7.8600002795917369e-10   4.1279127653277785e-10   8.1148366779807404e-10   4.2510579807107504e-10   8.3638173900698959e-10   4.3708220825259473e-10   8.6063427548443623e-10   4.4869165736463807e-10   8.8418286595548437e-10   4.5990617967597279e-10   9.0697079460892322e-10   4.7069876079892153e-10   9.2894317775819826e-10   4.8104340279202529e-10   9.5004709601039453e-10   4.9091518678422698e-10   9.7023172175389967e-10   5.0029033303805774e-10   9.8944844157913123e-10   5.0914625820757575e-10   1.0076509734023207e-09   5.1746162978122087e-10   1.0247954779042078e-09   5.2521641745767129e-10   1.0408406641764675e-09   5.3239194141492482e-10   1.0557478891498644e-09   5.3897091731531203e-10   1.0694812506927320e-09   5.4493749793167553e-10   1.0820076740842033e-09   5.5027731134229834e-10   1.0932969916703369e-09   5.5497749555478041e-10   1.1033220155513261e-09   5.5902672947613731e-10   1.1120586030491899e-09   5.6241526020453146e-10   1.1194857148615737e-09   5.6513492650814228e-10   1.1255854657525431e-09   5.6717917850414857e-10   1.1303431676052963e-09   5.6854309340691716e-10   1.1337473648189294e-09   5.6922338741569713e-10   1.1357898618688697e-09   5.6921842360188882e-10   1.1364657430794937e-09   5.6852821586589516e-10   1.1357733844391759e-09   5.6715442886151383e-10   1.1337144574778631e-09   5.6510037404177656e-10   1.1302939252661038e-09   5.6237100162550927e-10   1.1255200304733673e-09   5.5897288869402164e-10   1.1194042754498148e-09   5.5491422331876916e-10   1.1119613945493814e-09   5.5020478484900587e-10   1.1032093185939868e-09   5.4485592033696209e-10   1.0931691317160909e-09   5.3888051719419782e-10   1.0818650205221514e-09   5.3229297213118548e-10   1.0693242158472696e-09   5.2510915647969110e-10   1.0555769271242650e-09   5.1734637792831580e-10   1.0406562696287404e-09   5.0902333883233422e-10   1.0245981846758532e-09   5.0016009113720733e-10   1.0074413530490969e-09   4.9077798807328374e-10   9.8922710179968694e-10   4.8089963267327845e-10   9.6999930469764880e-10   4.7054882335215864e-10   9.4980427650239231e-10   4.5975049649661951e-10   9.2869066143328301e-10   4.4853066644260880e-10   9.0670931591512843e-10   4.3691636274682760e-10   8.8391318613456643e-10   4.2493556506542122e-10   8.6035718042614439e-10   4.1261713574047820e-10   8.3609803702202799e-10   3.9999075024132029e-10   8.1119418736701361e-10   3.8708682565774282e-10   7.8570561534072374e-10   3.7393644742067157e-10   7.5969371277083665e-10   3.6057129437659896e-10   7.3322113154318375e-10   3.4702356248409389e-10   7.0635163266658883e-10   3.3332588722159847e-10   6.7914993271755454e-10   3.1951126496635641e-10   6.5168154792682973e-10   3.0561297349309764e-10   6.2401263639789476e-10   2.9166449181388957e-10   5.9620983875696526e-10   2.7769941952358102e-10   5.6834011768227016e-10   2.6375139587261434e-10   5.4047059664254801e-10   2.4985401875942056e-10   5.1266839829350536e-10   2.3604076381354620e-10   4.8500048288421703e-10   2.2234490380475140e-10   4.5753348707613611e-10   2.0879942855078612e-10   4.3033356358473539e-10   1.9543696552293748e-10   4.0346622202007201e-10   1.8228970134790077e-10   3.7699617130814813e-10   1.6938930439123017e-10   3.5098716409973822e-10   1.5676684861703541e-10   3.2550184352845490e-10   1.4445273890981458e-10   3.0060159269738963e-10   1.3247663802632945e-10   2.7634638727350344e-10   1.2086739537649601e-10   2.5279465152846242e-10   1.0965297778817885e-10   2.3000311819795462e-10   9.8860402418551653e-11   2.0802669248136812e-10   8.8515671981806761e-11   1.8691832050868309e-10   7.8643712420691920e-11   1.6672886259045461e-10   6.9268313176851175e-11   1.4750697153151714e-10   6.0412070162573555e-11   1.2929897628413906e-10   5.2096331550552418e-11   1.1214877116994937e-10   4.4341146457408152e-11   9.6097710889578871e-11   3.7165216570675941e-11   8.1184511478376666e-11   3.0585850740256703e-11   6.7445157322500117e-11   2.4618922471125978e-11   5.4912814280661558e-11   1.9278830177045483e-11   4.3617748839816164e-11   1.4578459868325008e-11   3.3587253095824701e-11   1.0529149613549110e-11   2.4845575082683334e-11   7.1406543958751496e-12   1.7413853540891712e-11   4.4211082622352510e-12   1.1310055393771108e-11   2.3769758870736541e-12   6.5489125705857217e-12   1.0129701449691311e-12   3.1418513070230610e-12   3.3184836921989454e-13   1.0968990420428260e-12   2.4707300427647857e-13   4.1853728582311638e-13   5.0445990536608938e-12   4.2758261998998609e-12   8.4591299646386954e-12   8.4525625133542299e-12   1.3227774022138953e-11   1.3219572582802073e-11   1.9338330220913808e-11   1.9329002154826622e-11   2.6775628815286705e-11   2.6765655423520051e-11   3.5521411150964718e-11   3.5511249807508234e-11   4.5554327920582213e-11   4.5544418795582594e-11   5.6849972300476847e-11   5.6840744255858419e-11   6.9380930166050205e-11   6.9372804103192492e-11   8.3116841233395833e-11   8.3110231667067496e-11   9.8024468725220322e-11   9.8019784368805577e-11   1.1406777656047412e-10   1.1406542038167290e-10   1.3120801358275119e-10   1.3120838255959566e-10   1.4940380451880212e-10   1.4940728922083306e-10   1.6861124742699854e-10   1.6861823147092282e-10   1.8878401739573099e-10   1.8879487681843214e-10   2.0987347624170095e-10   2.0988857880540974e-10   2.3182878795686198e-10   2.3184849240121766e-10   2.5459703962506516e-10   2.5462169487562926e-10   2.7812336749920335e-10   2.7815331185391170e-10   3.0235108795158574e-10   3.0238664823726901e-10   3.2722183295119609e-10   3.2726332368089186e-10   3.5267568974524662e-10   3.5272341226434881e-10   3.7865134439185772e-10   3.7870558603960065e-10   4.0508622878036546e-10   4.0514726206106803e-10   4.3191667077561608e-10   4.3198475256146936e-10   4.5907804712585863e-10   4.5915341787025771e-10   4.8650493871979667e-10   4.8658782174068939e-10   5.1413128786178818e-10   5.1422188861615998e-10   5.4189055710547200e-10   5.4198906256291031e-10   5.6971588933224880e-10   5.6982246734906134e-10   5.9754026861565343e-10   5.9765506740002745e-10   6.2529668152482732e-10   6.2541982912372453e-10   6.5291827840666273e-10   6.5304988229456419e-10   6.8033853438519174e-10   6.8047868104127452e-10   7.0749140950465228e-10   7.0764016413639372e-10   7.3431150776915389e-10   7.3446891403206744e-10   7.6073423464769619e-10   7.6090031444778868e-10   7.8669595262544080e-10   7.8687070599471677e-10   8.1213413448890421e-10   8.1231753951619731e-10   8.3698751393947341e-10   8.3717952675060157e-10   8.6119623313457368e-10   8.6139678798142072e-10   8.8470198692197205e-10   8.8491099625187022e-10   9.0744816322602143e-10   9.0766551791174090e-10   9.2937997946274709e-10   9.2960554899097809e-10   9.5044461446929029e-10   9.5067824728692258e-10   9.7059133575743782e-10   9.7083285959947746e-10   9.8977162170750051e-10   9.9002084402498960e-10   1.0079392784730641e-09   1.0081959868861183e-09   1.0250505512083790e-09   1.0253145140645402e-09   1.0410642295127990e-09   1.0413351964240272e-09   1.0559417466655912e-09   1.0562194491643992e-09   1.0696472725403568e-09   1.0699314247384148e-09   1.0821477999063112e-09   1.0824380992201507e-09   1.0934132239220768e-09   1.0937093518530367e-09   1.1034164146703174e-09   1.1037180375959922e-09   1.1121332824864525e-09   1.1124400525236482e-09   1.1195428359841000e-09   1.1198543918701091e-09   1.1256272326307861e-09   1.1259432006500597e-09   1.1303718216964874e-09   1.1306918166416459e-09   1.1337651795601892e-09   1.1340888056973307e-09   1.1357991371926483e-09   1.1361259893065265e-09   1.1364687998646517e-09   1.1367984642723397e-09   1.1357725589107267e-09   1.1361046145367125e-09   1.1337120955690797e-09   1.1340461150399499e-09   1.1302923769566777e-09   1.1306279276716292e-09   1.1255216441167500e-09   1.1258582893934840e-09   1.1194113921040199e-09   1.1197486922880901e-09   1.1119763423243758e-09   1.1123138559117581e-09   1.1032344070295759e-09   1.1035716918349555e-09   1.0932066462038328e-09   1.0935432604720657e-09   1.0819172167844623e-09   1.0822527203708949e-09   1.0693933144878178e-09   1.0697272699600817e-09   1.0556651082614296e-09   1.0559970820708168e-09   1.0407656676265802e-09   1.0410952312017976e-09   1.0247308829852711e-09   1.0250576138771056e-09   1.0075993791696524e-09   1.0079228621341387e-09   9.8941242237636564e-10   9.8973225046836367e-10   9.7021382076461036e-10   9.7052959638850156e-10   9.5004981888387700e-10   9.5036115486501104e-10   9.2896898631342785e-10   9.2927550687695186e-10   9.0702210058832692e-10   9.0732344241050765e-10   8.8426202494459982e-10   8.8455783804484280e-10   8.6074358090774686e-10   8.6103352962844896e-10   8.3652341625048981e-10   8.3680718012713081e-10   8.1165986852720999e-10   8.1193714315201336e-10   7.8621282452368830e-10   7.8648332236890699e-10   7.6024357600560570e-10   7.6050702718945524e-10   7.3381467207094561e-10   7.3407082509469376e-10   7.0698976846701095e-10   7.0723839090986806e-10   6.7983347428838085e-10   6.8007435342139019e-10   6.5241119632753035e-10   6.5264413972343192e-10   6.2478898156087707e-10   6.2501381760571802e-10   5.9703335806996556e-10   5.9724993645981569e-10   5.6921117484748599e-10   5.6941936698658596e-10   5.4138944081475069e-10   5.4158914019434824e-10   5.1363516350083437e-10   5.1382628598150022e-10   4.8601518773191566e-10   4.8619767178362908e-10   4.5859603473807250e-10   4.5876984159861997e-10   4.3144374207748057e-10   4.3160885585255509e-10   4.0462370476485386e-10   4.0478013244231826e-10   3.7820051797644246e-10   3.7834828938010136e-10   3.5223782174046196e-10   3.5237698938887101e-10   3.2679814797415514e-10   3.2692878687387376e-10   3.0194277024429185e-10   3.0206497759321145e-10   2.7773155663029180e-10   2.7784545143415843e-10   2.5422282602509851e-10   2.5432854863625658e-10   2.3147320824511819e-10   2.3157091980743964e-10   2.0953750827005063e-10   2.0962739007934023e-10   1.8846857493440223e-10   1.8855082772050301e-10   1.6831717438345749e-10   1.6839201751253020e-10   1.4913186857281112e-10   1.4919953918600240e-10   1.3095889907733260e-10   1.3101965117851852e-10   1.1384207643682095e-10   1.1389617995560378e-10   9.7822675244914432e-11   9.7870415110899337e-11   8.2939335128412537e-11   8.2981010418373500e-11   6.9227967715546927e-11   6.9263890959707340e-11   5.6721669614070245e-11   5.6752166399058340e-11   4.5450641296081969e-11   4.5476050398021451e-11   3.5442111630718373e-11   3.5462786057793861e-11   2.6720267520610635e-11   2.6736577147624007e-11   1.9306187636004431e-11   1.9318524682779876e-11   1.3217778401086419e-11   1.3226568181500529e-11   8.4697088270112703e-12   8.4754306800172179e-12   5.0733377981851498e-12   5.0765666402681697e-12   3.0366221577692067e-12   3.0381139376718683e-12   2.3639929615744532e-12   2.3648654879128463e-12   2.2825658625005744e-12   3.0583807566839503e-12   1.2304231059106283e-11   1.0167752643223646e-11   1.7072003929184278e-11   1.7064720635318711e-11   2.3177762587367106e-11   2.3169309073337285e-11   3.0606053826751281e-11   3.0596864482350046e-11   3.9338534358359299e-11   3.9329027367119592e-11   4.9353846367434688e-11   4.9344422092179522e-11   6.0627613820986180e-11   6.0618656079129215e-11   7.3132477408779461e-11   7.3124356007156672e-11   8.6838148310141391e-11   8.6831221768655102e-11   1.0171147408086170e-10   1.0170609181292279e-10   1.1771651384671283e-10   1.1771301762879125e-10   1.3481462139761920e-10   1.3481334623695602e-10   1.5296453543959200e-10   1.5296580999175682e-10   1.7212247652067561e-10   1.7212662318688342e-10   1.9224225030925434e-10   1.9224958509251560e-10   2.1327535690528450e-10   2.1328618909989848e-10   2.3517110591709803e-10   2.3518573766288316e-10   2.5787673701061026e-10   2.5789546275465459e-10   2.8133754562593631e-10   2.8136065150501211e-10   3.0549701354702527e-10   3.0552477672782858e-10   3.3029694401010647e-10   3.3032963198314085e-10   3.5567760098904318e-10   3.5571547085009648e-10   3.8157785234228265e-10   3.8162115005692856e-10   4.0793531642362928e-10   4.0798427610197672e-10   4.3468651182425837e-10   4.3474135499925122e-10   4.6176700984252189e-10   4.6182794477876242e-10   4.8911158934665080e-10   4.8917881035002730e-10   5.1665439356177880e-10   5.1672808036486364e-10   5.4432908851806106e-10   5.4440940564568211e-10   5.7206902262569651e-10   5.7215611886273357e-10   5.9980738712121395e-10   5.9990139496741433e-10   6.2747737687489045e-10   6.2757841209411977e-10   6.5501235125026356e-10   6.5512051243852256e-10   6.8234599455867016e-10   6.8246136279390074e-10   7.0941247581884128e-10   7.0953511430988659e-10   7.3614660725081496e-10   7.3627656111280261e-10   7.6248400132797134e-10   7.6262129735174891e-10   7.8836122586494547e-10   7.8850587237424060e-10   8.1371595682056852e-10   8.1386794357895174e-10   8.3848712842895561e-10   8.3864642659337743e-10   8.6261508032553990e-10   8.6278164245582589e-10   8.8604170123550312e-10   8.8621546138001768e-10   9.0871056901256825e-10   9.0889144279591654e-10   9.3056708650473569e-10   9.3075497134746784e-10   9.5155861315169357e-10   9.5175338845236881e-10   9.7163459173449069e-10   9.7183611918622355e-10   9.9074667020291833e-10   9.9095479409469273e-10   1.0088488181495945e-09   1.0090633657502762e-09   1.0258974377043597e-09   1.0261182196837495e-09   1.0418514685326112e-09   1.0420782794422536e-09   1.0566724867863973e-09   1.0569051055592178e-09   1.0703247976325540e-09   1.0705629881404330e-09   1.0827755212546313e-09   1.0830190329128891e-09   1.0939946720544393e-09   1.0942432404487394e-09   1.1039552308734655e-09   1.1042085784453704e-09   1.1126332100882994e-09   1.1128910468274112e-09   1.1200077113757408e-09   1.1202697355802209e-09   1.1260609760764825e-09   1.1263268751043410e-09   1.1307784279457765e-09   1.1310478790331185e-09   1.1341487082572230e-09   1.1344213793501452e-09   1.1361637031830560e-09   1.1364392537795012e-09   1.1368185633143303e-09   1.1370966453563080e-09   1.1361117153563004e-09   1.1363919741115239e-09   1.1340448658841237e-09   1.1343269408693380e-09   1.1306229972170415e-09   1.1309065231525702e-09   1.1258543554914705e-09   1.1261389631863205e-09   1.1197504306867283e-09   1.1200357480572428e-09   1.1123259289825338e-09   1.1126115819723141e-09   1.1035987373308141e-09   1.1038843509083327e-09   1.0935898803444498e-09   1.0938750794712396e-09   1.0823234696716879e-09   1.0826078802620075e-09   1.0698266458567503e-09   1.0701098957731287e-09   1.0561295129996450e-09   1.0564112329947935e-09   1.0412650661871693e-09   1.0415448909045480e-09   1.0252691120392964e-09   1.0255466809379651e-09   1.0081801824168233e-09   1.0084551407282584e-09   9.9003944160382712e-10   9.9031144126187444e-10   9.7089058712869985e-10   9.7115928768380591e-10   9.5077974450269085e-10   9.5104481401973607e-10   9.2975535607792324e-10   9.3001647202421462e-10   9.0786806437816755e-10   9.0812491445434973e-10   8.8517059004384047e-10   8.8542287305311867e-10   8.6171760488037725e-10   8.6196503148072884e-10   8.3756560010391899e-10   8.3780789363331260e-10   8.1277275028331652e-10   8.1300964747920168e-10   7.8739877318222429e-10   7.8763002489560361e-10   7.6150478589890030e-10   7.6173015777629791e-10   7.3515315765515369e-10   7.3537243076750303e-10   7.0840735954955555e-10   7.0862033100360232e-10   6.8133181166886414e-10   6.8153829516776966e-10   6.5399172794031726e-10   6.5419155427993399e-10   6.2645295903463121e-10   6.2664597660014105e-10   5.9878183380060515e-10   5.9896790897131224e-10   5.7104499950855077e-10   5.7122401705163396e-10   5.4330926139098327e-10   5.4348112475862758e-10   5.1564142177534312e-10   5.1580605340048985e-10   4.8810811928596651e-10   4.8826546077263648e-10   4.6077566842666265e-10   4.6092568072371011e-10   4.3370990000998160e-10   4.3385256348332770e-10   4.0697600275929016e-10   4.0711131724166816e-10   3.8063836651513659e-10   3.8076635125188925e-10   3.5476042739071265e-10   3.5488112094885603e-10   3.2940451529984095e-10   3.2951797537460197e-10   3.0463170417804888e-10   3.0473800735372235e-10   2.8050166530446568e-10   2.8060090672082782e-10   2.5707252405749666e-10   2.5716481700720831e-10   2.3440072046324248e-10   2.3448619590470635e-10   2.1254087385865494e-10   2.1261967986424638e-10   1.9154565200483885e-10   1.9161795312226919e-10   1.7146564494606065e-10   1.7153162150117092e-10   1.5234924390693567e-10   1.5240909124493554e-10   1.3424252548881987e-10   1.3429645317398889e-10   1.1718914140429298e-10   1.1723737240583785e-10   1.0123021395974132e-10   1.0127298385477745e-10   8.6404237456382728e-11   8.6441793705794645e-11   7.2746985629854951e-11   7.2779587009389967e-11   6.0291425196403511e-11   6.0319341499393111e-11   4.9067635497317408e-11   4.9091147689009764e-11   3.9102734132763575e-11   3.9122135236690108e-11   3.0420808355599987e-11   3.0436405503462743e-11   2.3042851812334155e-11   2.3054970161746868e-11   1.6986706004389698e-11   1.6995695667596278e-11   1.2267005573321566e-11   1.2273253474188552e-11   8.8951263379856740e-12   8.8990762561886385e-12   6.8791356574197584e-12   6.8813220156427612e-12   6.2237505770256756e-12   6.2248541125352941e-12   6.9303477826892038e-12   6.9312698353308147e-12   6.8522967284029293e-12   8.9990973879825541e-12   2.2842373334556813e-11   1.8657119699091570e-11   2.8949605124162565e-11   2.8941792737841985e-11   3.6373123368924957e-11   3.6364556480942076e-11   4.5094314829251064e-11   4.5085350300080550e-11   5.5091718340596009e-11   5.5082712853259879e-11   6.6340940564623922e-11   6.6332235361943278e-11   7.8814654036807465e-11   7.8806574740632043e-11   9.2482635204475586e-11   9.2475493651912805e-11   1.0731182258198473e-10   1.0730591891402592e-10   1.2326638750688097e-10   1.2326201210779440e-10   1.4030781445204665e-10   1.4030524953892068e-10   1.5839498943428679e-10   1.5839451022565819e-10   1.7748429564591579e-10   1.7748617112433328e-10   1.9752971574466750e-10   1.9753420907389916e-10   2.1848294037