<?xml version="1.0"?>
<VTKFile type="UnstructuredGrid"  version="0.1"  >
<UnstructuredGrid>
<Piece  NumberOfPoints="16641" NumberOfCells="32768">
<Points>
<DataArray  type="Float64"  NumberOfComponents="3"  format="ascii">0 0 0  0.0078125 0 0  0.015625 0 0  0.0234375 0 0  0.03125 0 0  0.0390625 0 0  0.046875 0 0  0.0546875 0 0  0.0625 0 0  0.0703125 0 0  0.078125 0 0  0.0859375 0 0  0.09375 0 0  0.1015625 0 0  0.109375 0 0  0.1171875 0 0  0.125 0 0  0.1328125 0 0  0.140625 0 0  0.1484375 0 0  0.15625 0 0  0.1640625 0 0  0.171875 0 0  0.1796875 0 0  0.1875 0 0  0.1953125 0 0  0.203125 0 0  0.2109375 0 0  0.21875 0 0  0.2265625 0 0  0.234375 0 0  0.2421875 0 0  0.25 0 0  0.2578125 0 0  0.265625 0 0  0.2734375 0 0  0.28125 0 0  0.2890625 0 0  0.296875 0 0  0.3046875 0 0  0.3125 0 0  0.3203125 0 0  0.328125 0 0  0.3359375 0 0  0.34375 0 0  0.3515625 0 0  0.359375 0 0  0.3671875 0 0  0.375 0 0  0.3828125 0 0  0.390625 0 0  0.3984375 0 0  0.40625 0 0  0.4140625 0 0  0.421875 0 0  0.4296875 0 0  0.4375 0 0  0.4453125 0 0  0.453125 0 0  0.4609375 0 0  0.46875 0 0  0.4765625 0 0  0.484375 0 0  0.4921875 0 0  0.5 0 0  0.5078125 0 0  0.515625 0 0  0.5234375 0 0  0.53125 0 0  0.5390625 0 0  0.546875 0 0  0.5546875 0 0  0.5625 0 0  0.5703125 0 0  0.578125 0 0  0.5859375 0 0  0.59375 0 0  0.6015625 0 0  0.609375 0 0  0.6171875 0 0  0.625 0 0  0.6328125 0 0  0.640625 0 0  0.6484375 0 0  0.65625 0 0  0.6640625 0 0  0.671875 0 0  0.6796875 0 0  0.6875 0 0  0.6953125 0 0  0.703125 0 0  0.7109375 0 0  0.71875 0 0  0.7265625 0 0  0.734375 0 0  0.7421875 0 0  0.75 0 0  0.7578125 0 0  0.765625 0 0  0.7734375 0 0  0.78125 0 0  0.7890625 0 0  0.796875 0 0  0.8046875 0 0  0.8125 0 0  0.8203125 0 0  0.828125 0 0  0.8359375 0 0  0.84375 0 0  0.8515625 0 0  0.859375 0 0  0.8671875 0 0  0.875 0 0  0.8828125 0 0  0.890625 0 0  0.8984375 0 0  0.90625 0 0  0.9140625 0 0  0.921875 0 0  0.9296875 0 0  0.9375 0 0  0.9453125 0 0  0.953125 0 0  0.9609375 0 0  0.96875 0 0  0.9765625 0 0  0.984375 0 0  0.9921875 0 0  1 0 0  0 0.0078125 0  0.0078125 0.0078125 0  0.015625 0.0078125 0  0.0234375 0.0078125 0  0.03125 0.0078125 0  0.0390625 0.0078125 0  0.046875 0.0078125 0  0.0546875 0.0078125 0  0.0625 0.0078125 0  0.0703125 0.0078125 0  0.078125 0.0078125 0  0.0859375 0.0078125 0  0.09375 0.0078125 0  0.1015625 0.0078125 0  0.109375 0.0078125 0  0.1171875 0.0078125 0  0.125 0.0078125 0  0.1328125 0.0078125 0  0.140625 0.0078125 0  0.1484375 0.0078125 0  0.15625 0.0078125 0  0.1640625 0.0078125 0  0.171875 0.0078125 0  0.1796875 0.0078125 0  0.1875 0.0078125 0  0.1953125 0.0078125 0  0.203125 0.0078125 0  0.2109375 0.0078125 0  0.21875 0.0078125 0  0.2265625 0.0078125 0  0.234375 0.0078125 0  0.2421875 0.0078125 0  0.25 0.0078125 0  0.2578125 0.0078125 0  0.265625 0.0078125 0  0.2734375 0.0078125 0  0.28125 0.0078125 0  0.2890625 0.0078125 0  0.296875 0.0078125 0  0.3046875 0.0078125 0  0.3125 0.0078125 0  0.3203125 0.0078125 0  0.328125 0.0078125 0  0.3359375 0.0078125 0  0.34375 0.0078125 0  0.3515625 0.0078125 0  0.359375 0.0078125 0  0.3671875 0.0078125 0  0.375 0.0078125 0  0.3828125 0.0078125 0  0.390625 0.0078125 0  0.3984375 0.0078125 0  0.40625 0.0078125 0  0.4140625 0.0078125 0  0.421875 0.0078125 0  0.4296875 0.0078125 0  0.4375 0.0078125 0  0.4453125 0.0078125 0  0.453125 0.0078125 0  0.4609375 0.0078125 0  0.46875 0.0078125 0  0.4765625 0.0078125 0  0.484375 0.0078125 0  0.4921875 0.0078125 0  0.5 0.0078125 0  0.5078125 0.0078125 0  0.515625 0.0078125 0  0.5234375 0.0078125 0  0.53125 0.0078125 0  0.5390625 0.0078125 0  0.546875 0.0078125 0  0.5546875 0.0078125 0  0.5625 0.0078125 0  0.5703125 0.0078125 0  0.578125 0.0078125 0  0.5859375 0.0078125 0  0.59375 0.0078125 0  0.6015625 0.0078125 0  0.609375 0.0078125 0  0.6171875 0.0078125 0  0.625 0.0078125 0  0.6328125 0.0078125 0  0.640625 0.0078125 0  0.6484375 0.0078125 0  0.65625 0.0078125 0  0.6640625 0.0078125 0  0.671875 0.0078125 0  0.6796875 0.0078125 0  0.6875 0.0078125 0  0.6953125 0.0078125 0  0.703125 0.0078125 0  0.7109375 0.0078125 0  0.71875 0.0078125 0  0.7265625 0.0078125 0  0.734375 0.0078125 0  0.7421875 0.0078125 0  0.75 0.0078125 0  0.7578125 0.0078125 0  0.765625 0.0078125 0  0.7734375 0.0078125 0  0.78125 0.0078125 0  0.7890625 0.0078125 0  0.796875 0.0078125 0  0.8046875 0.0078125 0  0.8125 0.0078125 0  0.8203125 0.0078125 0  0.828125 0.0078125 0  0.8359375 0.0078125 0  0.84375 0.0078125 0  0.8515625 0.0078125 0  0.859375 0.0078125 0  0.8671875 0.0078125 0  0.875 0.0078125 0  0.8828125 0.0078125 0  0.890625 0.0078125 0  0.8984375 0.0078125 0  0.90625 0.0078125 0  0.9140625 0.0078125 0  0.921875 0.0078125 0  0.9296875 0.0078125 0  0.9375 0.0078125 0  0.9453125 0.0078125 0  0.953125 0.0078125 0  0.9609375 0.0078125 0  0.96875 0.0078125 0  0.9765625 0.0078125 0  0.984375 0.0078125 0  0.9921875 0.0078125 0  1 0.0078125 0  0 0.015625 0  0.0078125 0.015625 0  0.015625 0.015625 0  0.0234375 0.015625 0  0.03125 0.015625 0  0.0390625 0.015625 0  0.046875 0.015625 0  0.0546875 0.015625 0  0.0625 0.015625 0  0.0703125 0.015625 0  0.078125 0.015625 0  0.0859375 0.015625 0  0.09375 0.015625 0  0.1015625 0.015625 0  0.109375 0.015625 0  0.1171875 0.015625 0  0.125 0.015625 0  0.1328125 0.015625 0  0.140625 0.015625 0  0.1484375 0.015625 0  0.15625 0.015625 0  0.1640625 0.015625 0  0.171875 0.015625 0  0.1796875 0.015625 0  0.1875 0.015625 0  0.1953125 0.015625 0  0.203125 0.015625 0  0.2109375 0.015625 0  0.21875 0.015625 0  0.2265625 0.015625 0  0.234375 0.015625 0  0.2421875 0.015625 0  0.25 0.015625 0  0.2578125 0.015625 0  0.265625 0.015625 0  0.2734375 0.015625 0  0.28125 0.015625 0  0.2890625 0.015625 0  0.296875 0.015625 0  0.3046875 0.015625 0  0.3125 0.015625 0  0.3203125 0.015625 0  0.328125 0.015625 0  0.3359375 0.015625 0  0.34375 0.015625 0  0.3515625 0.015625 0  0.359375 0.015625 0  0.3671875 0.015625 0  0.375 0.015625 0  0.3828125 0.015625 0  0.390625 0.015625 0  0.3984375 0.015625 0  0.40625 0.015625 0  0.4140625 0.015625 0  0.421875 0.015625 0  0.4296875 0.015625 0  0.4375 0.015625 0  0.4453125 0.015625 0  0.453125 0.015625 0  0.4609375 0.015625 0  0.46875 0.015625 0  0.4765625 0.015625 0  0.484375 0.015625 0  0.4921875 0.015625 0  0.5 0.015625 0  0.5078125 0.015625 0  0.515625 0.015625 0  0.5234375 0.015625 0  0.53125 0.015625 0  0.5390625 0.015625 0  0.546875 0.015625 0  0.5546875 0.015625 0  0.5625 0.015625 0  0.5703125 0.015625 0  0.578125 0.015625 0  0.5859375 0.015625 0  0.59375 0.015625 0  0.6015625 0.015625 0  0.609375 0.015625 0  0.6171875 0.015625 0  0.625 0.015625 0  0.6328125 0.015625 0  0.640625 0.015625 0  0.6484375 0.015625 0  0.65625 0.015625 0  0.6640625 0.015625 0  0.671875 0.015625 0  0.6796875 0.015625 0  0.6875 0.015625 0  0.6953125 0.015625 0  0.703125 0.015625 0  0.7109375 0.015625 0  0.71875 0.015625 0  0.7265625 0.015625 0  0.734375 0.015625 0  0.7421875 0.015625 0  0.75 0.015625 0  0.7578125 0.015625 0  0.765625 0.015625 0  0.7734375 0.015625 0  0.78125 0.015625 0  0.7890625 0.015625 0  0.796875 0.015625 0  0.8046875 0.015625 0  0.8125 0.015625 0  0.8203125 0.015625 0  0.828125 0.015625 0  0.8359375 0.015625 0  0.84375 0.015625 0  0.8515625 0.015625 0  0.859375 0.015625 0  0.8671875 0.015625 0  0.875 0.015625 0  0.8828125 0.015625 0  0.890625 0.015625 0  0.8984375 0.015625 0  0.90625 0.015625 0  0.9140625 0.015625 0  0.921875 0.015625 0  0.9296875 0.015625 0  0.9375 0.015625 0  0.9453125 0.015625 0  0.953125 0.015625 0  0.9609375 0.015625 0  0.96875 0.015625 0  0.9765625 0.015625 0  0.984375 0.015625 0  0.9921875 0.015625 0  1 0.015625 0  0 0.0234375 0  0.0078125 0.0234375 0  0.015625 0.0234375 0  0.0234375 0.0234375 0  0.03125 0.0234375 0  0.0390625 0.0234375 0  0.046875 0.0234375 0  0.0546875 0.0234375 0  0.0625 0.0234375 0  0.0703125 0.0234375 0  0.078125 0.0234375 0  0.0859375 0.0234375 0  0.09375 0.0234375 0  0.1015625 0.0234375 0  0.109375 0.0234375 0  0.1171875 0.0234375 0  0.125 0.0234375 0  0.1328125 0.0234375 0  0.140625 0.0234375 0  0.1484375 0.0234375 0  0.15625 0.0234375 0  0.1640625 0.0234375 0  0.171875 0.0234375 0  0.1796875 0.0234375 0  0.1875 0.0234375 0  0.1953125 0.0234375 0  0.203125 0.0234375 0  0.2109375 0.0234375 0  0.21875 0.0234375 0  0.2265625 0.0234375 0  0.234375 0.0234375 0  0.2421875 0.0234375 0  0.25 0.0234375 0  0.2578125 0.0234375 0  0.265625 0.0234375 0  0.2734375 0.0234375 0  0.28125 0.0234375 0  0.2890625 0.0234375 0  0.296875 0.0234375 0  0.3046875 0.0234375 0  0.3125 0.0234375 0  0.3203125 0.0234375 0  0.328125 0.0234375 0  0.3359375 0.0234375 0  0.34375 0.0234375 0  0.3515625 0.0234375 0  0.359375 0.0234375 0  0.3671875 0.0234375 0  0.375 0.0234375 0  0.3828125 0.0234375 0  0.390625 0.0234375 0  0.3984375 0.0234375 0  0.40625 0.0234375 0  0.4140625 0.0234375 0  0.421875 0.0234375 0  0.4296875 0.0234375 0  0.4375 0.0234375 0  0.4453125 0.0234375 0  0.453125 0.0234375 0  0.4609375 0.0234375 0  0.46875 0.0234375 0  0.4765625 0.0234375 0  0.484375 0.0234375 0  0.4921875 0.0234375 0  0.5 0.0234375 0  0.5078125 0.0234375 0  0.515625 0.0234375 0  0.5234375 0.0234375 0  0.53125 0.0234375 0  0.5390625 0.0234375 0  0.546875 0.0234375 0  0.5546875 0.0234375 0  0.5625 0.0234375 0  0.5703125 0.0234375 0  0.578125 0.0234375 0  0.5859375 0.0234375 0  0.59375 0.0234375 0  0.6015625 0.0234375 0  0.609375 0.0234375 0  0.6171875 0.0234375 0  0.625 0.0234375 0  0.6328125 0.0234375 0  0.640625 0.0234375 0  0.6484375 0.0234375 0  0.65625 0.0234375 0  0.6640625 0.0234375 0  0.671875 0.0234375 0  0.6796875 0.0234375 0  0.6875 0.0234375 0  0.6953125 0.0234375 0  0.703125 0.0234375 0  0.7109375 0.0234375 0  0.71875 0.0234375 0  0.7265625 0.0234375 0  0.734375 0.0234375 0  0.7421875 0.0234375 0  0.75 0.0234375 0  0.7578125 0.0234375 0  0.765625 0.0234375 0  0.7734375 0.0234375 0  0.78125 0.0234375 0  0.7890625 0.0234375 0  0.796875 0.0234375 0  0.8046875 0.0234375 0  0.8125 0.0234375 0  0.8203125 0.0234375 0  0.828125 0.0234375 0  0.8359375 0.0234375 0  0.84375 0.0234375 0  0.8515625 0.0234375 0  0.859375 0.0234375 0  0.8671
[...]
<CellData  Scalars="f_1238"> 
<DataArray  type="Float64"  Name="f_1238"  format="ascii">1.9006483816585036e-11   1.8730373814598874e-11   4.1969769176228633e-11   5.5023354860777120e-11   7.5727590025255128e-11   1.1089613428518973e-10   1.2019749424762799e-10   1.8801729644993577e-10   1.7526877458707852e-10   2.8617174442383523e-10   2.4080506494337293e-10   4.0510404927436069e-10   3.1664507025295715e-10   5.4451391854429282e-10   4.0260303055078477e-10   7.0405476903154750e-10   4.9846915470403353e-10   8.8333352601943515e-10   6.0401008864642135e-10   1.0819109997160963e-09   7.1896943843796654e-10   1.2993025960749191e-09   8.4306835322779953e-10   1.5349792573605238e-09   9.7600616788955902e-10   1.7883685805173843e-09   1.1174611032629892e-09   2.0588560839394410e-09   1.2670910213985546e-09   2.3457866042370885e-09   1.4245342331794472e-09   2.6484658101860397e-09   1.5894103555845272e-09   2.9661618244357600e-09   1.7613212160375153e-09   3.2981069450028118e-09   1.9398518011897511e-09   3.6434994600277922e-09   2.1245712475405449e-09   4.0015055494836031e-09   2.3150338712427773e-09   4.3712612681093862e-09   2.5107802345153873e-09   4.7518746039354216e-09   2.7113382457582010e-09   5.1424276067973861e-09   2.9162242909015218e-09   5.5419785812067724e-09   3.1249443928684532e-09   5.9495643381052698e-09   3.3369953965490618e-09   6.3642024996503267e-09   3.5518661761910165e-09   6.7848938514611551e-09   3.7690388624417722e-09   7.2106247363934393e-09   3.9879900858428725e-09   7.6403694840578634e-09   4.2081922339617426e-09   8.0730928700526443e-09   4.4291147188999649e-09   8.5077525989778659e-09   4.6502252523228970e-09   8.9433018051145351e-09   4.8709911248537705e-09   9.3786915649138837e-09   5.0908804863428906e-09   9.8128734149159980e-09   5.3093636248591918e-09   1.0244801868889351e-08   5.5259142402136892e-09   1.0673436929034113e-08   5.7400107096734171e-09   1.1097746583640726e-08   5.9511373424687205e-09   1.1516709286544698e-08   6.1587856203067102e-09   1.1929316411388545e-08   6.3624554205590403e-09   1.2334574675725263e-08   6.5616562194827255e-09   1.2731508527989016e-08   6.7559082726307218e-09   1.3119162492476684e-08   6.9447437688150755e-09   1.3496603466482965e-08   7.1277079561805262e-09   1.3862922963161295e-08   7.3043602363850160e-09   1.4217239296261659e-08   7.4742752250075043e-09   1.4558699700119372e-08   7.6370437753513147e-09   1.4886482380332754e-08   7.7922739632468426e-09   1.5199798490314364e-08   7.9395920303915017e-09   1.5497894028501435e-08   8.0786432839395948e-09   1.5780051651773826e-08   8.2090929504380665e-09   1.6045592401153274e-08   8.3306269815852858e-09   1.6293877334966184e-08   8.4429528103203732e-09   1.6524309065890268e-08   8.5458000550820000e-09   1.6736333198099866e-08   8.6389211706721693e-09   1.6929439660983447e-08   8.7220920442977418e-09   1.7103163936273235e-08   8.7951125349819907e-09   1.7257088175645472e-08   8.8578069553742498e-09   1.7390842205897704e-08   8.9100244947235435e-09   1.7504104419483200e-08   8.9516395818406184e-09   1.7596602548340259e-08   8.9825521872882404e-09   1.7668114318567209e-08   9.0026880642049827e-09   1.7718467985231316e-08   9.0119989267756490e-09   1.7747542745400701e-08   9.0104625664061616e-09   1.7755269028242850e-08   8.9980829049138521e-09   1.7741628662280333e-08   8.9748899849303779e-09   1.7706654918336088e-08   8.9409398971457466e-09   1.7650432429485923e-08   8.8963146450908792e-09   1.7573096986294281e-08   8.8411219472812686e-09   1.7474835209676077e-08   8.7754949773070640e-09   1.7355884100922311e-08   8.6995920430062872e-09   1.7216530470531991e-08   8.6135962045111624e-09   1.7057110247316383e-08   8.5177148330002157e-09   1.6878007668624905e-08   8.4121791110285728e-09   1.6679654354874396e-08   8.2972434748609882e-09   1.6462528269808024e-08   8.1731850012844089e-09   1.6227152568526998e-08   8.0403027395699317e-09   1.5974094337488298e-08   7.8989169908242444e-09   1.5703963228111145e-08   7.7493685354092599e-09   1.5417409988379674e-08   7.5920178118457609e-09   1.5115124894680943e-08   7.4272440473878746e-09   1.4797836089167499e-08   7.2554443442579360e-09   1.4466307825284156e-08   7.0770327217414026e-09   1.4121338626714972e-08   6.8924391183237032e-09   1.3763759363352699e-08   6.7021083549111277e-09   1.3394431249677959e-08   6.5064990620949885e-09   1.3014243769769558e-08   6.3060825744550127e-09   1.2624112533916101e-08   6.1013417937763378e-09   1.2224977072873232e-08   5.8927700244164110e-09   1.1817798573789683e-08   5.6808697834739533e-09   1.1403557563878532e-08   5.4661515887644763e-09   1.0983251547912375e-08   5.2491327272868170e-09   1.0557892604223174e-08   5.0303360071133064e-09   1.0128504945554076e-08   4.8102884961476643e-09   9.6961224503976089e-09   4.5895202500574404e-09   9.2617861712770798e-09   4.3685630331155602e-09   8.8265418248842495e-09   4.1479490345594815e-09   8.3914372712985112e-09   3.9282095836965459e-09   7.9575199873654515e-09   3.7098738669570451e-09   7.5258345409265269e-09   3.4934676496602422e-09   7.0974200715898554e-09   3.2795120056644052e-09   6.6733077840121300e-09   3.0685220581541491e-09   6.2545184599189948e-09   2.8610057341467230e-09   5.8420599947351571e-09   2.6574625358389405e-09   5.4369249643764530e-09   2.4583823318159532e-09   5.0400882282252826e-09   2.2642441706652023e-09   4.6525045738943424e-09   2.0755151197633110e-09   4.2751064091030534e-09   1.8926491321392952e-09   3.9088015059970297e-09   1.7160859434711056e-09   3.5544708033428257e-09   1.5462500019440431e-09   3.2129662709971489e-09   1.3835494329692361e-09   2.8851088417113167e-09   1.2283750405684326e-09   2.5716864142597814e-09   1.0810993473845892e-09   2.2734519317913663e-09   9.4207567418435461e-10   1.9911215389217224e-09   8.1163725959764942e-10   1.7253728198836551e-09   6.9009641996101364e-10   1.4768431195488423e-09   5.7774374750297072e-10   1.2461279476696332e-09   4.7484734349846073e-10   1.0337794644214841e-09   3.8165207921324296e-10   8.4030504271153341e-10   2.9837887166729211e-10   6.6616589743475433e-10   2.2522394992589722e-10   5.1177576398216296e-10   1.6235806541481046e-10   3.7749959403883329e-10   1.0992555152445891e-10   2.6365221108448226e-10   6.8043022596699212e-11   1.7049681868227167e-10   3.6797187179681307e-11   9.8243154681009901e-11   1.6240232730088852e-11   4.7044864593825960e-11   6.3770630313847503e-12   1.6995137326842373e-11   5.3191698214502196e-12   8.1183892840019837e-12   8.7937585076753188e-11   7.3843651193921659e-11   1.4400252408651855e-10   1.4329515917676285e-10   2.2129063669858649e-10   2.2029809273938492e-10   3.1956829230224687e-10   3.1832092548546080e-10   4.3857571499996344e-10   4.3710175179567501e-10   5.7801192771712261e-10   5.7633801106078689e-10   7.3753085622777097e-10   7.3568277621548602e-10   9.1674030195387833e-10   9.1474356571042556e-10   1.1152020446450278e-09   1.1130821851550084e-09   1.3324324769946589e-09   1.3302151882399398e-09   1.5679035350042890e-09   1.5656147111580827e-09   1.8210438254712458e-09   1.8187095490975076e-09   2.0912399055710067e-09   2.0888864087449657e-09   2.3778376911587125e-09   2.3754913018818599e-09   2.6801439798201219e-09   2.6778310604636883e-09   2.9974280792452893e-09   2.9951749606224169e-09   3.3289235332635380e-09   3.3267564466169950e-09   3.6738299394407925e-09   3.6717749474974337e-09   4.0313148522501688e-09   4.0293977802233427e-09   4.4005157663447840e-09   4.3987621334524500e-09   4.7805421745275798e-09   4.7789771264094644e-09   5.1704776950021667e-09   5.1691259372573235e-09   5.5693822623657467e-09   5.5682679955343993e-09   5.9762943769934689e-09   5.9754412330600505e-09   6.3902334070165575e-09   6.3896643876937877e-09   6.8102019374586037e-09   6.8099393543480360e-09   7.2351881605457558e-09   7.2352535773336123e-09   7.6641683015200841e-09   7.6645824782433636e-09   8.0961090739459335e-09   8.0968919135843884e-09   8.5299701586066593e-09   8.5311406560355744e-09   8.9647066998822545e-09   8.9662828932548532e-09   9.3992718138203063e-09   9.4012707385173190e-09   9.8326191014788935e-09   9.8350567467436802e-09   1.0263705161416374e-08   1.0266596429906999e-08   1.0691492096153877e-08   1.0694850765861644e-08   1.1114950005005006e-08   1.1118788694685536e-08   1.1533059458672163e-08   1.1537389595730283e-08   1.1944813948610844e-08   1.1949645740564801e-08   1.2349222306181843e-08   1.2354564714577520e-08   1.2745311084720466e-08   1.2751171802935030e-08   1.3132126899573400e-08   1.3138512333279267e-08   1.3508738720315491e-08   1.3515653971327236e-08   1.3874240108743740e-08   1.3881688962479403e-08   1.4227751398788247e-08   1.4235736314430538e-08   1.4568421811713771e-08   1.4576943916160721e-08   1.4895431502108648e-08   1.4904490587239677e-08   1.5207993529808498e-08   1.5217588052725818e-08   1.5505355752586778e-08   1.5515482839554538e-08   1.5786802635140767e-08   1.5797458088631145e-08   1.6051656970496053e-08   1.6062835279505176e-08   1.6299281509001751e-08   1.6310975862927519e-08   1.6529080491320503e-08   1.6541282796572187e-08   1.6740501081710966e-08   1.6753201981978126e-08   1.6933034697961277e-08   1.6946223597300741e-08   1.7106218235030696e-08   1.7119883324172674e-08   1.7259635179207942e-08   1.7273763464754660e-08   1.7392916610086659e-08   1.7407493946761402e-08   1.7505742088103287e-08   1.7520753213834989e-08   1.7597840425543740e-08   1.7613268999101550e-08   1.7668990338612622e-08   1.7684818980342699e-08   1.7719020979849687e-08   1.7735231314568291e-08   1.7747812348985533e-08   1.7764385051572931e-08   1.7755295581083505e-08   1.7772210424469230e-08   1.7741453112077383e-08   1.7758689017086726e-08   1.7706318720219802e-08   1.7723853808232568e-08   1.7649977444791200e-08   1.7667789091516376e-08   1.7572565380307736e-08   1.7590630272558202e-08   1.7474269348618910e-08   1.7492563541406254e-08   1.7355326448400793e-08   1.7373825424827377e-08   1.7216023483706718e-08   1.7234702215764818e-08   1.7056696273028713e-08   1.7075529283656867e-08   1.6877728839734362e-08   1.6896690266331110e-08   1.6679552487048769e-08   1.6698616145633183e-08   1.6462644759003221e-08   1.6481784209344556e-08   1.6227528289429298e-08   1.6246716901130068e-08   1.5974769543090412e-08   1.5993980561663138e-08   1.5704977450747560e-08   1.5724184064647091e-08   1.5418801942390944e-08   1.5437977349583512e-08   1.5116932380957615e-08   1.5136049856412053e-08   1.4800095901790991e-08   1.4819128863955297e-08   1.4469055660505046e-08   1.4487977738104060e-08   1.4124608994435558e-08   1.4143394092565611e-08   1.3767585501394640e-08   1.3786207867082874e-08   1.3398845040935956e-08   1.3417279328104196e-08   1.3019275662543815e-08   1.3037496995716623e-08   1.2629791465530669e-08   1.2647775502997625e-08   1.2231330396799004e-08   1.2249053391835335e-08   1.1824851990420779e-08   1.1842290851805072e-08   1.1411335055113873e-08   1.1428467405990902e-08   1.0991775315725990e-08   1.1008579550423335e-08   1.0567183013271643e-08   1.0583638352983601e-08   1.0138580470053010e-08   1.0154667015903458e-08   9.7069996253067657e-09   9.7226984099254000e-09   9.2734795479142670e-09   9.2887725843783599e-09   8.8390639310446553e-09   8.8539342600378822e-09   8.4047985759699385e-09   8.4192303099424824e-09   7.9717288700734837e-09   7.9857072354167128e-09   7.5408972657692941e-09   7.5544086419670602e-09   7.1133407659588295e-09   7.1263727222661661e-09   6.6900884220382545e-09   6.7026297512615091e-09   6.2721588505994206e-09   6.2841996000685511e-09   5.8605577747011450e-09   5.8720892743017896e-09   5.4562755952549830e-09   5.4672904824994393e-09   5.0602849984946291e-09   5.0707772406099901e-09   4.6735386050795229e-09   4.6835035180868969e-09   4.2969666661824524e-09   4.3064009310027072e-09   3.9314748117710437e-09   3.9403764876089355e-09   3.5779418564949613e-09   3.5863103912358828e-09   3.2372176675014810e-09   3.2450539058424917e-09   2.9101210991290531e-09   2.9174272882877449e-09   2.5974379983627803e-09   2.6042177922198283e-09   2.2999192847891567e-09   2.3061777470425800e-09   2.0182791083182468e-09   2.0240227156839936e-09   1.7531930867577925e-09   1.7584297339567171e-09   1.5052966246052439e-09   1.5100356335394534e-09   1.2751833128396748e-09   1.2794354497115241e-09   1.0634034070488181e-09   1.0671809134830271e-09   8.7046237817502767e-10   8.7377902575881347e-10   6.9681952447946975e-10   6.9969070861756794e-10   5.4288662479297854e-10   5.4532952461535447e-10   4.0902659810429677e-10   4.1106044960415744e-10   2.9555210860129514e-10   2.9719867680734565e-10   2.0272400814804707e-10   2.0400842068475344e-10   1.3074942107758428e-10   1.3170168262493043e-10   7.9779113256757217e-11   8.0436959030165718e-11   4.9903509741902957e-11   5.0318026515717228e-11   4.1146792232715043e-11   4.1393895935285763e-11   4.0213153572861536e-11   5.3667877089650923e-11   2.0622515825088898e-10   1.6951983407425600e-10   2.8334549954163903e-10   2.8256543324910361e-10   3.8144785766558768e-10   3.8040927294593684e-10   5.0024356789789429e-10   4.9897283034770917e-10   6.3942056280238003e-10   6.3794406072264738e-10   7.9862817225683675e-10   7.9697188837779804e-10   9.7747259199458236e-10   9.7566205839273657e-10   1.1755155296363247e-09   1.1735759280805951e-09   1.3922741320023803e-09   1.3902304414443671e-09   1.6272215535723294e-09   1.6250986697849413e-09   1.8797878981585391e-09   1.8776107039372320e-09   2.1493614028783083e-09   2.1471547946765673e-09   2.4352897964255947e-09   2.4330786796793612e-09   2.7368817953438300e-09   2.7346910586788800e-09   3.0534087172456091e-09   3.0512631930359365e-09   3.3841061978519727e-09   3.3820306140315226e-09   3.7281760023630650e-09   3.7261949288176505e-09   4.0847879239042840e-09   4.0829257155891074e-09   4.4530817626080298e-09   4.4513625007942218e-09   4.8321693796441432e-09   4.8306168124680287e-09   5.2211368202644822e-09   5.2197743031062226e-09   5.6190465005760433e-09   5.6178969368231407e-09   6.0249394523601803e-09   6.0240252351042230e-09   6.4378376203348579e-09   6.4371805750841028e-09   6.8567462062918831e-09   6.8563675351406094e-09   7.2806560542130819e-09   7.2805762815012179e-09   7.7085460706502759e-09   7.7087849905051286e-09   8.1393856744863285e-09   8.1399623000819521e-09   8.5721372701666076e-09   8.5730697852531787e-09   9.0057587381564873e-09   9.0070644506378000e-09   9.4392059370911861e-09   9.4409012348750529e-09   9.8714352111443721e-09   9.8735355204864865e-09   1.0301405896592164e-08   1.0303925642883287e-08   1.0728082821706933e-08   1.0731035392916753e-08   1.1150438794100123e-08   1.1153836506695234e-08   1.1567457068640189e-08   1.1571311136485891e-08   1.1978133791290699e-08   1.1982454297192706e-08   1.2381480411549232e-08   1.2386276281970599e-08   1.2776526059258392e-08   1.2781805041374481e-08   1.3162319878177467e-08   1.3168088520713500e-08   1.3537933312592459e-08   1.3544196948957347e-08   1.3902462339866312e-08   1.3909225074743628e-08   1.4255029644177272e-08   1.4262294343258262e-08   1.4594786726814809e-08   1.4602555009362544e-08   1.4920915946825983e-08   1.4929188181502906e-08   1.5232632487475587e-08   1.5241407791475164e-08   1.5529186244384933e-08   1.5538462485118101e-08   1.5809863629572842e-08   1.5819637430298315e-08   1.6073989288322678e-08   1.6084256036254568e-08   1.6320927724149521e-08   1.6331681581738120e-08   1.6550084827209504e-08   1.6561318746809899e-08   1.6760909304237924e-08   1.6772615045149434e-08   1.6952894004566598e-08   1.6965062153889962e-08   1.7125577140562535e-08   1.7138197136112184e-08   1.7278543398625506e-08   1.7291603555293270e-08   1.7411424938495610e-08   1.7424912477092516e-08   1.7523902278230974e-08   1.7537803357254226e-08   1.7615705062796567e-08   1.7630004812610883e-08   1.7686612714629204e-08   1.7701295274270253e-08   1.7736454964004485e-08   1.7751503520727050e-08   1.7765112258799181e-08   1.7780509089507233e-08   1.7772516051638610e-08   1.7788242566798083e-08   1.7758648964352940e-08   1.7774685754415940e-08   1.7723544829712527e-08   1.7739871712850012e-08   1.7667288609175860e-08   1.7683884681750440e-08   1.7590016188455767e-08   1.7606859876265323e-08   1.7491914048752412e-08   1.7508983161463805e-08   1.7373218818310956e-08   1.7390490603703446e-08   1.7234216701585605e-08   1.7251667902811600e-08   1.7075242789740033e-08   1.7092849702556994e-08   1.6896680253151880e-08   1.6914418785127296e-08   1.6698959418126634e-08   1.6716805148704460e-08   1.6482556730331395e-08   1.6500484971410495e-08   1.6247993606703504e-08   1.6265979464214949e-08   1.5995835179014646e-08   1.6013853615158899e-08   1.5726688932705478e-08   1.5744714828186409e-08   1.5441203242919223e-08   1.5459211460080091e-08   1.5140065812859621e-08   1.5158031258045860e-08   1.4824002016323235e-08   1.4841899703204732e-08   1.4493773150377613e-08   1.4511578262246637e-08   1.4150174601015929e-08   1.4167862553211065e-08   1.3794033926620327e-08   1.3811580428431022e-08   1.3426208864283944e-08   1.3443589979901931e-08   1.3047585262722178e-08   1.3064777471878402e-08   1.2659074947921357e-08   1.2676055205085591e-08   1.2261613525633187e-08   1.2278359318689909e-08   1.1856158127147989e-08   1.1872647534212862e-08   1.1443685102376065e-08   1.1459896847915633e-08   1.1025187666753229e-08   1.1041101175927842e-08   1.0601673507908533e-08   1.0617268958897453e-08   1.0174162356138559e-08   1.0189420731616189e-08   9.7436835267030308e-09   9.7585866626054977e-09   9.3112734383240629e-09   9.3258040712198775e-09   8.8779731145438037e-09   8.8921149264333304e-09   8.4448256732503814e-09   8.4585633346859409e-09   8.0128738114562081e-09   8.0261930218712052e-09   7.5831572901156943e-09   7.5960448162128062e-09   7.1567104260791282e-09   7.1691541373078928e-09   6.7345595961967094e-09   6.7465484981328887e-09   6.3177207602442963e-09   6.3292450250838620e-09   5.9071970082960155e-09   5.9182480028205685e-09   5.5039761381174701e-09   5.5145464489853309e-09   5.1090282685876148e-09   5.1191117249168111e-09   4.7233034946225380e-09   4.7328951879534376e-09   4.3477295889694416e-09   4.3568258906825926e-09   3.9832097563041799e-09   3.9918083323993680e-09   3.6306204444688618e-09   3.6387202682911120e-09   3.2908092180871072e-09   3.2984105806210899e-09   2.9645926986361848e-09   2.9716972174352198e-09   2.6527545757978597e-09   2.6593652024718314e-09   2.3560436934696791e-09   2.3621647209137235e-09   2.0751722141852656e-09   2.0808092843581000e-09   1.8108138645867245e-09   1.8159739785276897e-09   1.5636022639988134e-09   1.5682937963171228e-09   1.3341293371953140e-09   1.3383620583629479e-09   1.1229438109846568e-09   1.1267289223569027e-09   9.3054979246497667e-10   9.3389998151385629e-10   7.5740542425695086e-10   7.6033495136976252e-10   6.0392160839700199e-10   6.0644644295721977e-10   4.7046078566449779e-10   4.7259881919669711e-10   3.5733575052537298e-10   3.5910713121704350e-10   2.6480847365989862e-10   2.6623613354487577e-10   1.9308889638679615e-10   1.9419938719411285e-10   1.4233366352641861e-10   1.4315849219976516e-10   1.1264482003957206e-10   1.1322259904832877e-10   1.0406888776399525e-10   1.0444874268322288e-10   1.1659919501531850e-10   1.1684509963739621e-10   1.1491397731114229e-10   1.5038484657515969e-10   3.7542530232924581e-10   3.0553259820116509e-10   4.7338105870581373e-10   4.7253731924040145e-10   5.9198738240963219e-10   5.9091292335548272e-10   7.3090809447138155e-10   7.2962518165339666e-10   8.8978101241942073e-10   8.8831387709049272e-10   1.0682068735374605e-09   1.0665799791224087e-09   1.2657449135124020e-09   1.2639826461586707e-09   1.4819115160013366e-09   1.4800381055196803e-09   1.7161801632824424e-09   1.7142196775861866e-09   1.9679820271090991e-09   1.9659583969346060e-09   2.2367069379081721e-09   2.2346439847927010e-09   2.5217046094358621e-09   2.5196260618611081e-09   2.8222860509614897e-09   2.8202155446315857e-09   3.1377251267340437e-09   3.1356861898513492e-09   3.4672602375