<?xml version="1.0"?>
<VTKFile type="UnstructuredGrid"  version="0.1"  >
<UnstructuredGrid>
<Piece  NumberOfPoints="16641" NumberOfCells="32768">
<Points>
<DataArray  type="Float64"  NumberOfComponents="3"  format="ascii">0 0 0  0.0078125 0 0  0.015625 0 0  0.0234375 0 0  0.03125 0 0  0.0390625 0 0  0.046875 0 0  0.0546875 0 0  0.0625 0 0  0.0703125 0 0  0.078125 0 0  0.0859375 0 0  0.09375 0 0  0.1015625 0 0  0.109375 0 0  0.1171875 0 0  0.125 0 0  0.1328125 0 0  0.140625 0 0  0.1484375 0 0  0.15625 0 0  0.1640625 0 0  0.171875 0 0  0.1796875 0 0  0.1875 0 0  0.1953125 0 0  0.203125 0 0  0.2109375 0 0  0.21875 0 0  0.2265625 0 0  0.234375 0 0  0.2421875 0 0  0.25 0 0  0.2578125 0 0  0.265625 0 0  0.2734375 0 0  0.28125 0 0  0.2890625 0 0  0.296875 0 0  0.3046875 0 0  0.3125 0 0  0.3203125 0 0  0.328125 0 0  0.3359375 0 0  0.34375 0 0  0.3515625 0 0  0.359375 0 0  0.3671875 0 0  0.375 0 0  0.3828125 0 0  0.390625 0 0  0.3984375 0 0  0.40625 0 0  0.4140625 0 0  0.421875 0 0  0.4296875 0 0  0.4375 0 0  0.4453125 0 0  0.453125 0 0  0.4609375 0 0  0.46875 0 0  0.4765625 0 0  0.484375 0 0  0.4921875 0 0  0.5 0 0  0.5078125 0 0  0.515625 0 0  0.5234375 0 0  0.53125 0 0  0.5390625 0 0  0.546875 0 0  0.5546875 0 0  0.5625 0 0  0.5703125 0 0  0.578125 0 0  0.5859375 0 0  0.59375 0 0  0.6015625 0 0  0.609375 0 0  0.6171875 0 0  0.625 0 0  0.6328125 0 0  0.640625 0 0  0.6484375 0 0  0.65625 0 0  0.6640625 0 0  0.671875 0 0  0.6796875 0 0  0.6875 0 0  0.6953125 0 0  0.703125 0 0  0.7109375 0 0  0.71875 0 0  0.7265625 0 0  0.734375 0 0  0.7421875 0 0  0.75 0 0  0.7578125 0 0  0.765625 0 0  0.7734375 0 0  0.78125 0 0  0.7890625 0 0  0.796875 0 0  0.8046875 0 0  0.8125 0 0  0.8203125 0 0  0.828125 0 0  0.8359375 0 0  0.84375 0 0  0.8515625 0 0  0.859375 0 0  0.8671875 0 0  0.875 0 0  0.8828125 0 0  0.890625 0 0  0.8984375 0 0  0.90625 0 0  0.9140625 0 0  0.921875 0 0  0.9296875 0 0  0.9375 0 0  0.9453125 0 0  0.953125 0 0  0.9609375 0 0  0.96875 0 0  0.9765625 0 0  0.984375 0 0  0.9921875 0 0  1 0 0  0 0.0078125 0  0.0078125 0.0078125 0  0.015625 0.0078125 0  0.0234375 0.0078125 0  0.03125 0.0078125 0  0.0390625 0.0078125 0  0.046875 0.0078125 0  0.0546875 0.0078125 0  0.0625 0.0078125 0  0.0703125 0.0078125 0  0.078125 0.0078125 0  0.0859375 0.0078125 0  0.09375 0.0078125 0  0.1015625 0.0078125 0  0.109375 0.0078125 0  0.1171875 0.0078125 0  0.125 0.0078125 0  0.1328125 0.0078125 0  0.140625 0.0078125 0  0.1484375 0.0078125 0  0.15625 0.0078125 0  0.1640625 0.0078125 0  0.171875 0.0078125 0  0.1796875 0.0078125 0  0.1875 0.0078125 0  0.1953125 0.0078125 0  0.203125 0.0078125 0  0.2109375 0.0078125 0  0.21875 0.0078125 0  0.2265625 0.0078125 0  0.234375 0.0078125 0  0.2421875 0.0078125 0  0.25 0.0078125 0  0.2578125 0.0078125 0  0.265625 0.0078125 0  0.2734375 0.0078125 0  0.28125 0.0078125 0  0.2890625 0.0078125 0  0.296875 0.0078125 0  0.3046875 0.0078125 0  0.3125 0.0078125 0  0.3203125 0.0078125 0  0.328125 0.0078125 0  0.3359375 0.0078125 0  0.34375 0.0078125 0  0.3515625 0.0078125 0  0.359375 0.0078125 0  0.3671875 0.0078125 0  0.375 0.0078125 0  0.3828125 0.0078125 0  0.390625 0.0078125 0  0.3984375 0.0078125 0  0.40625 0.0078125 0  0.4140625 0.0078125 0  0.421875 0.0078125 0  0.4296875 0.0078125 0  0.4375 0.0078125 0  0.4453125 0.0078125 0  0.453125 0.0078125 0  0.4609375 0.0078125 0  0.46875 0.0078125 0  0.4765625 0.0078125 0  0.484375 0.0078125 0  0.4921875 0.0078125 0  0.5 0.0078125 0  0.5078125 0.0078125 0  0.515625 0.0078125 0  0.5234375 0.0078125 0  0.53125 0.0078125 0  0.5390625 0.0078125 0  0.546875 0.0078125 0  0.5546875 0.0078125 0  0.5625 0.0078125 0  0.5703125 0.0078125 0  0.578125 0.0078125 0  0.5859375 0.0078125 0  0.59375 0.0078125 0  0.6015625 0.0078125 0  0.609375 0.0078125 0  0.6171875 0.0078125 0  0.625 0.0078125 0  0.6328125 0.0078125 0  0.640625 0.0078125 0  0.6484375 0.0078125 0  0.65625 0.0078125 0  0.6640625 0.0078125 0  0.671875 0.0078125 0  0.6796875 0.0078125 0  0.6875 0.0078125 0  0.6953125 0.0078125 0  0.703125 0.0078125 0  0.7109375 0.0078125 0  0.71875 0.0078125 0  0.7265625 0.0078125 0  0.734375 0.0078125 0  0.7421875 0.0078125 0  0.75 0.0078125 0  0.7578125 0.0078125 0  0.765625 0.0078125 0  0.7734375 0.0078125 0  0.78125 0.0078125 0  0.7890625 0.0078125 0  0.796875 0.0078125 0  0.8046875 0.0078125 0  0.8125 0.0078125 0  0.8203125 0.0078125 0  0.828125 0.0078125 0  0.8359375 0.0078125 0  0.84375 0.0078125 0  0.8515625 0.0078125 0  0.859375 0.0078125 0  0.8671875 0.0078125 0  0.875 0.0078125 0  0.8828125 0.0078125 0  0.890625 0.0078125 0  0.8984375 0.0078125 0  0.90625 0.0078125 0  0.9140625 0.0078125 0  0.921875 0.0078125 0  0.9296875 0.0078125 0  0.9375 0.0078125 0  0.9453125 0.0078125 0  0.953125 0.0078125 0  0.9609375 0.0078125 0  0.96875 0.0078125 0  0.9765625 0.0078125 0  0.984375 0.0078125 0  0.9921875 0.0078125 0  1 0.0078125 0  0 0.015625 0  0.0078125 0.015625 0  0.015625 0.015625 0  0.0234375 0.015625 0  0.03125 0.015625 0  0.0390625 0.015625 0  0.046875 0.015625 0  0.0546875 0.015625 0  0.0625 0.015625 0  0.0703125 0.015625 0  0.078125 0.015625 0  0.0859375 0.015625 0  0.09375 0.015625 0  0.1015625 0.015625 0  0.109375 0.015625 0  0.1171875 0.015625 0  0.125 0.015625 0  0.1328125 0.015625 0  0.140625 0.015625 0  0.1484375 0.015625 0  0.15625 0.015625 0  0.1640625 0.015625 0  0.171875 0.015625 0  0.1796875 0.015625 0  0.1875 0.015625 0  0.1953125 0.015625 0  0.203125 0.015625 0  0.2109375 0.015625 0  0.21875 0.015625 0  0.2265625 0.015625 0  0.234375 0.015625 0  0.2421875 0.015625 0  0.25 0.015625 0  0.2578125 0.015625 0  0.265625 0.015625 0  0.2734375 0.015625 0  0.28125 0.015625 0  0.2890625 0.015625 0  0.296875 0.015625 0  0.3046875 0.015625 0  0.3125 0.015625 0  0.3203125 0.015625 0  0.328125 0.015625 0  0.3359375 0.015625 0  0.34375 0.015625 0  0.3515625 0.015625 0  0.359375 0.015625 0  0.3671875 0.015625 0  0.375 0.015625 0  0.3828125 0.015625 0  0.390625 0.015625 0  0.3984375 0.015625 0  0.40625 0.015625 0  0.4140625 0.015625 0  0.421875 0.015625 0  0.4296875 0.015625 0  0.4375 0.015625 0  0.4453125 0.015625 0  0.453125 0.015625 0  0.4609375 0.015625 0  0.46875 0.015625 0  0.4765625 0.015625 0  0.484375 0.015625 0  0.4921875 0.015625 0  0.5 0.015625 0  0.5078125 0.015625 0  0.515625 0.015625 0  0.5234375 0.015625 0  0.53125 0.015625 0  0.5390625 0.015625 0  0.546875 0.015625 0  0.5546875 0.015625 0  0.5625 0.015625 0  0.5703125 0.015625 0  0.578125 0.015625 0  0.5859375 0.015625 0  0.59375 0.015625 0  0.6015625 0.015625 0  0.609375 0.015625 0  0.6171875 0.015625 0  0.625 0.015625 0  0.6328125 0.015625 0  0.640625 0.015625 0  0.6484375 0.015625 0  0.65625 0.015625 0  0.6640625 0.015625 0  0.671875 0.015625 0  0.6796875 0.015625 0  0.6875 0.015625 0  0.6953125 0.015625 0  0.703125 0.015625 0  0.7109375 0.015625 0  0.71875 0.015625 0  0.7265625 0.015625 0  0.734375 0.015625 0  0.7421875 0.015625 0  0.75 0.015625 0  0.7578125 0.015625 0  0.765625 0.015625 0  0.7734375 0.015625 0  0.78125 0.015625 0  0.7890625 0.015625 0  0.796875 0.015625 0  0.8046875 0.015625 0  0.8125 0.015625 0  0.8203125 0.015625 0  0.828125 0.015625 0  0.8359375 0.015625 0  0.84375 0.015625 0  0.8515625 0.015625 0  0.859375 0.015625 0  0.8671875 0.015625 0  0.875 0.015625 0  0.8828125 0.015625 0  0.890625 0.015625 0  0.8984375 0.015625 0  0.90625 0.015625 0  0.9140625 0.015625 0  0.921875 0.015625 0  0.9296875 0.015625 0  0.9375 0.015625 0  0.9453125 0.015625 0  0.953125 0.015625 0  0.9609375 0.015625 0  0.96875 0.015625 0  0.9765625 0.015625 0  0.984375 0.015625 0  0.9921875 0.015625 0  1 0.015625 0  0 0.0234375 0  0.0078125 0.0234375 0  0.015625 0.0234375 0  0.0234375 0.0234375 0  0.03125 0.0234375 0  0.0390625 0.0234375 0  0.046875 0.0234375 0  0.0546875 0.0234375 0  0.0625 0.0234375 0  0.0703125 0.0234375 0  0.078125 0.0234375 0  0.0859375 0.0234375 0  0.09375 0.0234375 0  0.1015625 0.0234375 0  0.109375 0.0234375 0  0.1171875 0.0234375 0  0.125 0.0234375 0  0.1328125 0.0234375 0  0.140625 0.0234375 0  0.1484375 0.0234375 0  0.15625 0.0234375 0  0.1640625 0.0234375 0  0.171875 0.0234375 0  0.1796875 0.0234375 0  0.1875 0.0234375 0  0.1953125 0.0234375 0  0.203125 0.0234375 0  0.2109375 0.0234375 0  0.21875 0.0234375 0  0.2265625 0.0234375 0  0.234375 0.0234375 0  0.2421875 0.0234375 0  0.25 0.0234375 0  0.2578125 0.0234375 0  0.265625 0.0234375 0  0.2734375 0.0234375 0  0.28125 0.0234375 0  0.2890625 0.0234375 0  0.296875 0.0234375 0  0.3046875 0.0234375 0  0.3125 0.0234375 0  0.3203125 0.0234375 0  0.328125 0.0234375 0  0.3359375 0.0234375 0  0.34375 0.0234375 0  0.3515625 0.0234375 0  0.359375 0.0234375 0  0.3671875 0.0234375 0  0.375 0.0234375 0  0.3828125 0.0234375 0  0.390625 0.0234375 0  0.3984375 0.0234375 0  0.40625 0.0234375 0  0.4140625 0.0234375 0  0.421875 0.0234375 0  0.4296875 0.0234375 0  0.4375 0.0234375 0  0.4453125 0.0234375 0  0.453125 0.0234375 0  0.4609375 0.0234375 0  0.46875 0.0234375 0  0.4765625 0.0234375 0  0.484375 0.0234375 0  0.4921875 0.0234375 0  0.5 0.0234375 0  0.5078125 0.0234375 0  0.515625 0.0234375 0  0.5234375 0.0234375 0  0.53125 0.0234375 0  0.5390625 0.0234375 0  0.546875 0.0234375 0  0.5546875 0.0234375 0  0.5625 0.0234375 0  0.5703125 0.0234375 0  0.578125 0.0234375 0  0.5859375 0.0234375 0  0.59375 0.0234375 0  0.6015625 0.0234375 0  0.609375 0.0234375 0  0.6171875 0.0234375 0  0.625 0.0234375 0  0.6328125 0.0234375 0  0.640625 0.0234375 0  0.6484375 0.0234375 0  0.65625 0.0234375 0  0.6640625 0.0234375 0  0.671875 0.0234375 0  0.6796875 0.0234375 0  0.6875 0.0234375 0  0.6953125 0.0234375 0  0.703125 0.0234375 0  0.7109375 0.0234375 0  0.71875 0.0234375 0  0.7265625 0.0234375 0  0.734375 0.0234375 0  0.7421875 0.0234375 0  0.75 0.0234375 0  0.7578125 0.0234375 0  0.765625 0.0234375 0  0.7734375 0.0234375 0  0.78125 0.0234375 0  0.7890625 0.0234375 0  0.796875 0.0234375 0  0.8046875 0.0234375 0  0.8125 0.0234375 0  0.8203125 0.0234375 0  0.828125 0.0234375 0  0.8359375 0.0234375 0  0.84375 0.0234375 0  0.8515625 0.0234375 0  0.859375 0.0234375 0  0.8671
[...]
<CellData  Scalars="f_16807"> 
<DataArray  type="Float64"  Name="f_16807"  format="ascii">2.4002968082084195e-13   2.4007301848634267e-13   5.7876059329930490e-13   7.6564480298346306e-13   1.0880683889518499e-12   1.6149411364212917e-12   1.7666450475721697e-12   2.8048762998600982e-12   2.6127863530283928e-12   4.3324444192492297e-12   3.6243946396686805e-12   6.1938325963945854e-12   4.7989833936701168e-12   8.3844375044093238e-12   6.1336826398217070e-12   1.0898879139323373e-11   7.6252450040109976e-12   1.3731014162080856e-11   9.2700525233774540e-12   1.6873949843009396e-11   1.1064124288904299e-11   2.0320059149242875e-11   1.3003124981769942e-11   2.4060997291411012e-11   1.5082374336574985e-11   2.8087719921737779e-11   1.7296857537979707e-11   3.2390503083366374e-11   1.9641236542031243e-11   3.6958964947145386e-11   2.2109862294378290e-11   4.1782089329861218e-11   2.4696787811113811e-11   4.6848250950469262e-11   2.7395782081449604e-11   5.2145242361408860e-11   3.0200344744114180e-11   5.7660302479388651e-11   3.3103721491208104e-11   6.3380146620353198e-11   3.6098920146280604e-11   6.9290997949825274e-11   3.9178727370450139e-11   7.5378620244240541e-11   4.2335725941354104e-11   8.1628351867645039e-11   4.5562312556141397e-11   8.8025140855845488e-11   4.8850716110716591e-11   9.4553581010758277e-11   5.2193016396736403e-11   1.0119794890271455e-10   5.5581163178273839e-11   1.0794224167486317e-10   5.9006995584737945e-11   1.1477021555439710e-10   6.2462261780931797e-11   1.2166542496083312e-10   6.5938638861407223e-11   1.2861126212397928e-10   6.9427752912117360e-11   1.3559099709738774e-10   7.2921199202717947e-11   1.4258781807164513e-10   7.6410562452953814e-11   1.4958487189622315e-10   7.9887437110948283e-11   1.5656530469521784e-10   8.3343447631481298e-11   1.6351230248195491e-10   8.6770268658239727e-11   1.7040913169925789e-10   9.0159645091910129e-11   1.7723917953202745e-10   9.3503411991923970e-11   1.8398599394623466e-10   9.6793514253361630e-11   1.9063332334203161e-10   1.0002202601993217e-10   1.9716515570968638e-10   1.0318116978625758e-10   2.0356575721339575e-10   1.0626333514063764e-10   2.0981971010395632e-10   1.0926109710215117e-10   2.1591194986723672e-10   1.1216723401274120e-10   2.2182780151664485e-10   1.1497474494035074e-10   2.2755301495097266e-10   1.1767686654330625e-10   2.3307379928618948e-10   1.2026708937009992e-10   2.3837685607768400e-10   1.2273917354076802e-10   2.4344941136081512e-10   1.2508716377962771e-10   2.4827924641862400e-10   1.2730540376768098e-10   2.5285472722170897e-10   1.2938854976363113e-10   2.5716483245332182e-10   1.3133158348256230e-10   2.6119918005354935e-10   1.3312982418119095e-10   2.6494805223484887e-10   1.3477893994453152e-10   2.6840241888763248e-10   1.3627495810755001e-10   2.7155395933877505e-10   1.3761427483684069e-10   2.7439508238153798e-10   1.3879366380673004e-10   2.7691894457513999e-10   1.3981028397660344e-10   2.7911946672021577e-10   1.4066168642733679e-10   2.8099134850866774e-10   1.4134582026992250e-10   2.8253008128232713e-10   1.4186103757683446e-10   2.8373195890271173e-10   1.4220609735938677e-10   2.8459408666721194e-10   1.4238016855164789e-10   2.8511438829255728e-10   1.4238283201658299e-10   2.8529161090578406e-10   1.4221408154980047e-10   2.8512532806540788e-10   1.4187432389976247e-10   2.8461594078839184e-10   1.4136437778300173e-10   2.8376467658071372e-10   1.4068547191509832e-10   2.8257358648165696e-10   1.3983924204512906e-10   2.8104554012182485e-10   1.3882772701958388e-10   2.7918421880384063e-10   1.3765336386659685e-10   2.7699410664419769e-10   1.3631898192475303e-10   2.7448047976095197e-10   1.3482779602802708e-10   2.7164939356757493e-10   1.3318339875635090e-10   2.6850766818266212e-10   1.3138975178333445e-10   2.6506287199879926e-10   1.2945117633056514e-10   2.6132330345506399e-10   1.2737234275166700e-10   2.5729797103924675e-10   1.2515825928989208e-10   2.5299657158717129e-10   1.2281425999789983e-10   2.4842946692893642e-10   1.2034599189854766e-10   2.4360765891230368e-10   1.1775940136778215e-10   2.3854276291618955e-10   1.1506071981372902e-10   2.3324697984513502e-10   1.1225644866136580e-10   2.2773306675730150e-10   1.0935334368500916e-10   2.2201430612047796e-10   1.0635839872804573e-10   2.1610447381054544e-10   1.0327882885660424e-10   2.1001780592306623e-10   1.0012205296514390e-10   2.0376896448032735e-10   9.6895675904070075e-11   1.9737300209452842e-10   9.3607470147875815e-11   1.9084532570850292e-10   9.0265357071220358e-11   1.8420165946808616e-10   8.6877387848098574e-11   1.7745800683817516e-10   8.3451724054607963e-11   1.7063061203294446e-10   7.9996617991315425e-11   1.6373592087867474e-10   7.6520392797757182e-11   1.5679054117474444e-10   7.3031422382301229e-11   1.4981120267683545e-10   6.9538111239947287e-11   1.4281471676784488e-10   6.6048874189923554e-11   1.3581793594564224e-10   6.2572116086182013e-11   1.2883771320177692e-10   5.9116211560099104e-11   1.2189086139734554e-10   5.5689484827476979e-11   1.1499411274533047e-10   5.2300189622817883e-11   1.0816407847468618e-10   4.8956489308772888e-11   1.0141720879985642e-10   4.5666437203616712e-11   9.4769753281796969e-11   4.2437957184978537e-11   8.8237721679763760e-11   3.9278824616842398e-11   8.1836845400424441e-11   3.6196647643867849e-11   7.5582539637458310e-11   3.3198848918034408e-11   6.9489866301119176e-11   3.0292647790587625e-11   6.3573497848355456e-11   2.7485043031285943e-11   5.7847682095070432e-11   2.4782796122605168e-11   5.2326208127806433e-11   2.2192415178401007e-11   4.7022373410269915e-11   1.9720139536130355e-11   4.1948952183106636e-11   1.7371925075406799e-11   3.7118165260144584e-11   1.5153430306310719e-11   3.2541651321715809e-11   1.3070003273314532e-11   2.8230439799140395e-11   1.1126669315334442e-11   2.4194925442578775e-11   9.3281197103440102e-12   2.0444844655732348e-11   7.6787012299195988e-12   1.6989253664448252e-11   6.1824066046594815e-12   1.3836508570291206e-11   4.8428658865968747e-12   1.0994247306565764e-11   3.6633386593143252e-12   8.4693734764668581e-12   2.6467070074254659e-12   6.2680419950349117e-12   1.7954690870170841e-12   4.3956463836274095e-12   1.1117330226727761e-12   2.8568074585535823e-12   5.9721055169621074e-13   1.6553630061693417e-12   2.5320884282750679e-13   7.9435776740571739e-13   8.0614466936607763e-14   2.7603249671750188e-13   5.8915493980842993e-14   1.0180964705915514e-13   1.2377291082581664e-12   1.0510423796805059e-12   2.0870455193734334e-12   2.0872418430057680e-12   3.2763100717364088e-12   3.2769923706957082e-12   4.8025506663607411e-12   4.8037031179507167e-12   6.6619701919319366e-12   6.6635705854588345e-12   8.8499783432308944e-12   8.8519981484323300e-12   1.1361208702854718e-11   1.1363613190671962e-11   1.4189532786713925e-11   1.4192281716917514e-11   1.7328074001090873e-11   1.7331122612761796e-11   2.0769222575173108e-11   2.0772522649084399e-11   2.4504651941834278e-11   2.4508152809473126e-11   2.8525336799521470e-11   2.8528986232706405e-11   3.2821572963779686e-11   3.2825317927058719e-11   3.7382999038389139e-11   3.7386786302814168e-11   4.2198619892765861e-11   4.2202396520948702e-11   4.7256831893958981e-11   4.7260545614474347e-11   5.2545449824563858e-11   5.2549049313875663e-11   5.8051735404859198e-11   5.8055170491207075e-11   6.3762427321028195e-11   6.3765649133224694e-11   6.9663772666599020e-11   6.9666733733250207e-11   7.5741559691899737e-11   7.5744214011564455e-11   8.1981151764638297e-11   8.1983454849033536e-11   8.8367522432361366e-11   8.8369431336362516e-11   9.4885291489833738e-11   9.4886764829845014e-11   1.0151876194951843e-10   1.0151975991649601e-10   1.0825195780853008e-10   1.0825244218017374e-10   1.1506866251850758e-10   1.1506859666889796e-10   1.2195245804695735e-10   1.2195180695942358e-10   1.2888676444611740e-10   1.2888549472550068e-10   1.3585487981307546e-10   1.3585295970435469e-10   1.4284002054656133e-10   1.4283741995283709e-10   1.4982536181132081e-10   1.4982205231437183e-10   1.5679407809280361e-10   1.5679003297691057e-10   1.6372938375001433e-10   1.6372457803192374e-10   1.7061457349361609e-10   1.7060898393636383e-10   1.7743306263352259e-10   1.7742666778400972e-10   1.8416842705435088e-10   1.8416120726481582e-10   1.9080444280398670e-10   1.9079638025574024e-10   1.9732512518503309e-10   1.9731620391999887e-10   2.0371476727455632e-10   2.0370497321422998e-10   2.0995797777367964e-10   2.0994729874237238e-10   2.1603971809292942e-10   2.1602814383695990e-10   2.2194533858345565e-10   2.2193286079211684e-10   2.2766061383436670e-10   2.2764722615124178e-10   2.3317177694560855e-10   2.3315747498185028e-10   2.3846555269257839e-10   2.3845033403670959e-10   2.4352918951141377e-10   2.4351305373440925e-10   2.4835049021252983e-10   2.4833343887166291e-10   2.5291784136886075e-10   2.5289987800270045e-10   2.5722024129165214e-10   2.5720137142021809e-10   2.6124732652688988e-10   2.6122755763969309e-10   2.6498939682653238e-10   2.6496873836957804e-10   2.6843743851130002e-10   2.6841590187460641e-10   2.7158314618996255e-10   2.7156074467939519e-10   2.7441894275222863e-10   2.7439569157615573e-10   2.7693799763424650e-10   2.7691391386645981e-10   2.7913424326290679e-10   2.7910934581639202e-10   2.8100238967766778e-10   2.8097669926336255e-10   2.8253793726414765e-10   2.8251147635771357e-10   2.8373718760201011e-10   2.8370998039223804e-10   2.8459725236237187e-10   2.8456932471227254e-10   2.8511606027585757e-10   2.8508743966441248e-10   2.8529236211133273e-10   2.8526307758491900e-10   2.8512573368817494e-10   2.8509581579762684e-10   2.8461657689766347e-10   2.8458605764086592e-10   2.8376611873132727e-10   2.8373503148839776e-10   2.8257640832632318e-10   2.8254478778756222e-10   2.8105031202788757e-10   2.8101819412922345e-10   2.7919150647786076e-10   2.7915892832585213e-10   2.7700446976757810e-10   2.7697146955775436e-10   2.7449447063995336e-10   2.7446108758851033e-10   2.7166755580099830e-10   2.7163383005406899e-10   2.6853053535031627e-10   2.6849650790638479e-10   2.6509096637407957e-10   2.6505667899681170e-10   2.6135713474439920e-10   2.6132262987622764e-10   2.5733803515208837e-10   2.5730335582826441e-10   2.5304334943883211e-10   2.5300853919423308e-10   2.4848342327918454e-10   2.4844852605589931e-10   2.4366924124347350e-10   2.4363430130626521e-10   2.3861240035219076e-10   2.3857746218231977e-10   2.3332508211488991e-10   2.3329019033649717e-10   2.2782002320503992e-10   2.2778522247051252e-10   2.2211048476452899e-10   2.2207581967785747e-10   2.1621022045422056e-10   2.1617573546935910e-10   2.1013344331870662e-10   2.1009918264946141e-10   2.0389479154908940e-10   2.0386079907252907e-10   1.9750929320389283e-10   1.9747561237867243e-10   1.9099233000909730e-10   1.9095900377719911e-10   1.8435960029170504e-10   1.8432667099678730e-10   1.7762708115864802e-10   1.7759459045581832e-10   1.7081098999137780e-10   1.7077897876835088e-10   1.6392774537365207e-10   1.6389625366653480e-10   1.5699392752023823e-10   1.5696299443901097e-10   1.5002623832775213e-10   1.4999590197546176e-10   1.4304146111477574e-10   1.4301175852468407e-10   1.3605642017967146e-10   1.3602738724091156e-10   1.2908794025063246e-10   1.2905961164680220e-10   1.2215280593322886e-10   1.2212521508454055e-10   1.1526772126593517e-10   1.1524090026631118e-10   1.0844926945792862e-10   1.0842324902821721e-10   1.0171387293337158e-10   1.0168868236575306e-10   9.5077753768020821e-11   9.5053420878563709e-11   8.8556894618027057e-11   8.8533445697990764e-11   8.2167000246828768e-11   8.2144460010429432e-11   7.5923459744164231e-11   7.5901851273951756e-11   6.9841309536438790e-11   6.9820654222501788e-11   6.3935197298686364e-11   6.3915514760799814e-11   5.8219346851453430e-11   5.8200654851173231e-11   5.2707524157858124e-11   5.2689838482435487e-11   4.7413004517463069e-11   4.7396338835300920e-11   4.2348541054932605e-11   4.2332906732946111e-11   3.7526334606193265e-11   3.7511740478956152e-11   3.2958005101464391e-11   3.2944457183208911e-11   2.8654564538495258e-11   2.8642065669806270e-11   2.4626391635755846e-11   2.4614941057601018e-11   2.0883208246184867e-11   2.0872801095826763e-11   1.7434057594839987e-11   1.7424684327390496e-11   1.4287284385013186e-11   1.4278930129152524e-11   1.1450516784235464e-11   1.1443160655837945e-11   8.9306502586478137e-12   8.9242646742478574e-12   6.7338331668840350e-12   6.7283832230563084e-12   4.8654539462825060e-12   4.8608969691105240e-12   3.3301296184383896e-12   3.3264150463953139e-12   2.1316951964365592e-12   2.1287650654862476e-12   1.2731933493872159e-12   1.2709838926173180e-12   7.5686332802206405e-13   7.5530882209427442e-13   5.8412814982782223e-13   5.8316966029291828e-13   5.6312993059120770e-13   7.5519009411673453e-13   3.0447012833575595e-12   2.5181121452028207e-12   4.2346249662007665e-12   4.2345095602035370e-12   5.7602059033640585e-12   5.7605718418121400e-12   7.6176775563356224e-12   7.6184992601225031e-12   9.8024679583012962e-12   9.8037068446896235e-12   1.2309226109773304e-11   1.2310835126524617e-11   1.5131840206187097e-11   1.5133766009439982e-11   1.8263453078175017e-11   1.8265637719906361e-11   2.1696477531428022e-11   2.1698859886916217e-11   2.5422612708139555e-11   2.5425129692583724e-11   2.9432861958860515e-11   2.9435449548586835e-11   3.3717552461491608e-11   3.3720146520507408e-11   3.8266356662812436e-11   3.8268893595372346e-11   4.3068315550264418e-11   4.3070732797792031e-11   4.8111863711296834e-11   4.8114100118949998e-11   5.3384856106108260e-11   5.3386852184064748e-11   5.8874596465156038e-11   5.8876294568388060e-11   6.4567867217394574e-11   6.4569211660366336e-11   7.0450960835249189e-11   7.0451897966325203e-11   7.6509712504212070e-11   7.6510190742912139e-11   8.2729533998345623e-11   8.2729503855827854e-11   8.9095448665706081e-11   8.9094862750732388e-11   9.5592127411831303e-11   9.5590940432022672e-11   1.0220392558451324e-10   1.0220209434315418e-10   1.0891492065300741e-10   1.0891240404795066e-10   1.1570895057968309e-10   1.1570570960382704e-10   1.2256965278365530e-10   1.2256565053014900e-10   1.2948050360163662e-10   1.2947570527218411e-10   1.3642485814110559e-10   1.3641923105599202e-10   1.4338599041922031e-10   1.4337950403530417e-10   1.5034713370768879e-10   1.5033975963335383e-10   1.5729152096617289e-10   1.5728323298252482e-10   1.6420242527348551e-10   1.6419319935533818e-10   1.7106320015905247e-10   1.7105301449913809e-10   1.7785731974333601e-10   1.7784615476582067e-10   1.8456841856493912e-10   1.8455625695936789e-10   1.9118033103790113e-10   1.9116715777200638e-10   1.9767713041814597e-10   1.9766293275383397e-10   2.0404316717789096e-10   2.0402793469477511e-10   2.1026310672812284e-10   2.1024683132977927e-10   2.1632196636942842e-10   2.1630464229661370e-10   2.2220515139586530e-10   2.2218677523199623e-10   2.2789849025627046e-10   2.2787906093448718e-10   2.3338826870457618e-10   2.3336778750126037e-10   2.3866126283984961e-10   2.3863973337394363e-10   2.4370477096783342e-10   2.4368219918866570e-10   2.4850664419850195e-10   2.4848303837428420e-10   2.5305531571419469e-10   2.5303068641446975e-10   2.5733982864294323e-10   2.5731418871046551e-10   2.6134986243995753e-10   2.6132322697204498e-10   2.6507575775890381e-10   2.6504814406873048e-10   2.6850853972181430e-10   2.6847996730509308e-10   2.7163993953339408e-10   2.7161043002814700e-10   2.7446241440567415e-10   2.7443199154279527e-10   2.7696916572134557e-10   2.7693785528014936e-10   2.7915415541622205e-10   2.7912198516444869e-10   2.8101212051957301e-10   2.8097912015775250e-10   2.8253858583493527e-10   2.8250478693173223e-10   2.8372987471470419e-10   2.8369531064230487e-10   2.8458311792218765e-10   2.8454782378228596e-10   2.8509626053794623e-10   2.8506027308918769e-10   2.8526806691279504e-10   2.8523142448982069e-10   2.8509812363649150e-10   2.8506086607110431e-10   2.8458684054238215e-10   2.8454900907443949e-10   2.8373544971249222e-10   2.8369708690460901e-10   2.8254600250664598e-10   2.8250715215106737e-10   2.8102136463008830e-10   2.8098207165035810e-10   2.7916520921603569e-10   2.7912551957981515e-10   2.7698200798302660e-10   2.7694196859375435e-10   2.7447702046822298e-10   2.7443667906346268e-10   2.7165628134107825e-10   2.7161568639722293e-10   2.6852658587805024e-10   2.6848578649578937e-10   2.6509547358361714e-10   2.6505451938938706e-10   2.6137121003457637e-10   2.6133015106652151e-10   2.5736276696359964e-10   2.5732165356635055e-10   2.5307980064099932e-10   2.5303868335668610e-10   2.4853262861999639e-10   2.4849155807415185e-10   2.4373220487598277e-10   2.4369123167088066e-10   2.3869009341423210e-10   2.3864926802055385e-10   2.3341844042084270e-10   2.3337781306230358e-10   2.2792994498218803e-10   2.2788956553882519e-10   2.2223782851762751e-10   2.2219774639985611e-10   2.1635580290160770e-10   2.1631606695676360e-10   2.1029803743895581e-10   2.1025869584357550e-10   2.0407912472703995e-10   2.0404022488301158e-10   1.9771404550020530e-10   1.9767563393045829e-10   1.9121813252663699e-10   1.9118025478612734e-10   1.8460703367533557e-10   1.8456973424437467e-10   1.7789667420721940e-10   1.7785999640506504e-10   1.7110321840417978e-10   1.7106720429935876e-10   1.6424303061900993e-10   1.6420772094339731e-10   1.5733263584261391e-10   1.5729806991086669e-10   1.5038867988083729e-10   1.5035489551420899e-10   1.4342788924597410e-10   1.4339492269864827e-10   1.3646703084013385e-10   1.3643491673614461e-10   1.2952287155488154e-10   1.2949164282191604e-10   1.2261213786222757e-10   1.2258182567678581e-10   1.1575147550536529e-10   1.1572210924294685e-10   1.0895740939361082e-10   1.0892901657586014e-10   1.0224630378088812e-10   1.0221891003886391e-10   9.5634322853373995e-11   9.5607951881372323e-11   8.9137391800626475e-11   8.9112065321451523e-11   8.2771158483431335e-11   8.2746896208535777e-11   7.6550955795347328e-11   7.6527775382278297e-11   7.0491764811720520e-11   7.0469681817932585e-11   6.4608178831033871e-11   6.4587206655953976e-11   5.8914368407384766e-11   5.8894518216493290e-11   5.3424047466815797e-11   5.3405328098995416e-11   4.8150440619838207e-11   4.8132858459604252e-11   4.3106251760080259e-11   4.3089810573378895e-11   3.8303634050876981e-11   3.8288334771327593e-11   3.3754161399252097e-11   3.3740001855505938e-11   2.9468801512395630e-11   2.9455776083474736e-11   2.5457890624620668e-11   2.5445989815104543e-11   2.1731109977319903e-11   2.1720319903949481e-11   1.8297464120990138e-11   1.8287765906893925e-11   1.5165261087068827e-11   1.5156630167790972e-11   1.2342094450876367e-11   1.2334499807305072e-11   9.8348272677700655e-12   9.8282306149150887e-12   7.6495778100622153e-12   7.6439327957979283e-12   5.7917069673668048e-12   5.7869584575108053e-12   4.2658070835660311e-12   4.2618906491822214e-12   3.0756919017577702e-12   3.0725336666871234e-12   2.2243871704149285e-12   2.2219042419341934e-12   1.7141213749466753e-12   1.7122231871483903e-12   1.5463162816742103e-12   1.5449073050328203e-12   1.7215794958858673e-12   1.7205629301323186e-12   1.7032963590984315e-12   2.2389886319275233e-12   5.6754532208703249e-12   4.6375448870252141e-12   7.2023855667677546e-12   7.2019756086647305e-12   9.0592934719053726e-12   9.0593552230463536e-12   1.1241618951847970e-11   1.1242117914562117e-11   1.3744027364163414e-11   1.3744912615228128e-11   1.6560425900773494e-11   1.6561636542889344e-11   1.9683980436754472e-11   1.9685449215888481e-11   2.3107131394087930e-11   2.3108787222145896e-11   2.6821610115602991e-11   2.6823379952982172e-11   3.0818456536359642e-11   3.0820266808298575e-11   3.5088038519997641e-11   3.5089816170423746e-11   3.9620073018295902e-11   3.9621746272406203e-11   4.4403649080915573e-11   4.4405147982509759e-11   4.9427252687461220e-11   4.9428509460298155e-11   5.46787933