<?xml version="1.0"?>
<VTKFile type="UnstructuredGrid"  version="0.1"  >
<UnstructuredGrid>
<Piece  NumberOfPoints="16641" NumberOfCells="32768">
<Points>
<DataArray  type="Float64"  NumberOfComponents="3"  format="ascii">0 0 0  0.0078125 0 0  0.015625 0 0  0.0234375 0 0  0.03125 0 0  0.0390625 0 0  0.046875 0 0  0.0546875 0 0  0.0625 0 0  0.0703125 0 0  0.078125 0 0  0.0859375 0 0  0.09375 0 0  0.1015625 0 0  0.109375 0 0  0.1171875 0 0  0.125 0 0  0.1328125 0 0  0.140625 0 0  0.1484375 0 0  0.15625 0 0  0.1640625 0 0  0.171875 0 0  0.1796875 0 0  0.1875 0 0  0.1953125 0 0  0.203125 0 0  0.2109375 0 0  0.21875 0 0  0.2265625 0 0  0.234375 0 0  0.2421875 0 0  0.25 0 0  0.2578125 0 0  0.265625 0 0  0.2734375 0 0  0.28125 0 0  0.2890625 0 0  0.296875 0 0  0.3046875 0 0  0.3125 0 0  0.3203125 0 0  0.328125 0 0  0.3359375 0 0  0.34375 0 0  0.3515625 0 0  0.359375 0 0  0.3671875 0 0  0.375 0 0  0.3828125 0 0  0.390625 0 0  0.3984375 0 0  0.40625 0 0  0.4140625 0 0  0.421875 0 0  0.4296875 0 0  0.4375 0 0  0.4453125 0 0  0.453125 0 0  0.4609375 0 0  0.46875 0 0  0.4765625 0 0  0.484375 0 0  0.4921875 0 0  0.5 0 0  0.5078125 0 0  0.515625 0 0  0.5234375 0 0  0.53125 0 0  0.5390625 0 0  0.546875 0 0  0.5546875 0 0  0.5625 0 0  0.5703125 0 0  0.578125 0 0  0.5859375 0 0  0.59375 0 0  0.6015625 0 0  0.609375 0 0  0.6171875 0 0  0.625 0 0  0.6328125 0 0  0.640625 0 0  0.6484375 0 0  0.65625 0 0  0.6640625 0 0  0.671875 0 0  0.6796875 0 0  0.6875 0 0  0.6953125 0 0  0.703125 0 0  0.7109375 0 0  0.71875 0 0  0.7265625 0 0  0.734375 0 0  0.7421875 0 0  0.75 0 0  0.7578125 0 0  0.765625 0 0  0.7734375 0 0  0.78125 0 0  0.7890625 0 0  0.796875 0 0  0.8046875 0 0  0.8125 0 0  0.8203125 0 0  0.828125 0 0  0.8359375 0 0  0.84375 0 0  0.8515625 0 0  0.859375 0 0  0.8671875 0 0  0.875 0 0  0.8828125 0 0  0.890625 0 0  0.8984375 0 0  0.90625 0 0  0.9140625 0 0  0.921875 0 0  0.9296875 0 0  0.9375 0 0  0.9453125 0 0  0.953125 0 0  0.9609375 0 0  0.96875 0 0  0.9765625 0 0  0.984375 0 0  0.9921875 0 0  1 0 0  0 0.0078125 0  0.0078125 0.0078125 0  0.015625 0.0078125 0  0.0234375 0.0078125 0  0.03125 0.0078125 0  0.0390625 0.0078125 0  0.046875 0.0078125 0  0.0546875 0.0078125 0  0.0625 0.0078125 0  0.0703125 0.0078125 0  0.078125 0.0078125 0  0.0859375 0.0078125 0  0.09375 0.0078125 0  0.1015625 0.0078125 0  0.109375 0.0078125 0  0.1171875 0.0078125 0  0.125 0.0078125 0  0.1328125 0.0078125 0  0.140625 0.0078125 0  0.1484375 0.0078125 0  0.15625 0.0078125 0  0.1640625 0.0078125 0  0.171875 0.0078125 0  0.1796875 0.0078125 0  0.1875 0.0078125 0  0.1953125 0.0078125 0  0.203125 0.0078125 0  0.2109375 0.0078125 0  0.21875 0.0078125 0  0.2265625 0.0078125 0  0.234375 0.0078125 0  0.2421875 0.0078125 0  0.25 0.0078125 0  0.2578125 0.0078125 0  0.265625 0.0078125 0  0.2734375 0.0078125 0  0.28125 0.0078125 0  0.2890625 0.0078125 0  0.296875 0.0078125 0  0.3046875 0.0078125 0  0.3125 0.0078125 0  0.3203125 0.0078125 0  0.328125 0.0078125 0  0.3359375 0.0078125 0  0.34375 0.0078125 0  0.3515625 0.0078125 0  0.359375 0.0078125 0  0.3671875 0.0078125 0  0.375 0.0078125 0  0.3828125 0.0078125 0  0.390625 0.0078125 0  0.3984375 0.0078125 0  0.40625 0.0078125 0  0.4140625 0.0078125 0  0.421875 0.0078125 0  0.4296875 0.0078125 0  0.4375 0.0078125 0  0.4453125 0.0078125 0  0.453125 0.0078125 0  0.4609375 0.0078125 0  0.46875 0.0078125 0  0.4765625 0.0078125 0  0.484375 0.0078125 0  0.4921875 0.0078125 0  0.5 0.0078125 0  0.5078125 0.0078125 0  0.515625 0.0078125 0  0.5234375 0.0078125 0  0.53125 0.0078125 0  0.5390625 0.0078125 0  0.546875 0.0078125 0  0.5546875 0.0078125 0  0.5625 0.0078125 0  0.5703125 0.0078125 0  0.578125 0.0078125 0  0.5859375 0.0078125 0  0.59375 0.0078125 0  0.6015625 0.0078125 0  0.609375 0.0078125 0  0.6171875 0.0078125 0  0.625 0.0078125 0  0.6328125 0.0078125 0  0.640625 0.0078125 0  0.6484375 0.0078125 0  0.65625 0.0078125 0  0.6640625 0.0078125 0  0.671875 0.0078125 0  0.6796875 0.0078125 0  0.6875 0.0078125 0  0.6953125 0.0078125 0  0.703125 0.0078125 0  0.7109375 0.0078125 0  0.71875 0.0078125 0  0.7265625 0.0078125 0  0.734375 0.0078125 0  0.7421875 0.0078125 0  0.75 0.0078125 0  0.7578125 0.0078125 0  0.765625 0.0078125 0  0.7734375 0.0078125 0  0.78125 0.0078125 0  0.7890625 0.0078125 0  0.796875 0.0078125 0  0.8046875 0.0078125 0  0.8125 0.0078125 0  0.8203125 0.0078125 0  0.828125 0.0078125 0  0.8359375 0.0078125 0  0.84375 0.0078125 0  0.8515625 0.0078125 0  0.859375 0.0078125 0  0.8671875 0.0078125 0  0.875 0.0078125 0  0.8828125 0.0078125 0  0.890625 0.0078125 0  0.8984375 0.0078125 0  0.90625 0.0078125 0  0.9140625 0.0078125 0  0.921875 0.0078125 0  0.9296875 0.0078125 0  0.9375 0.0078125 0  0.9453125 0.0078125 0  0.953125 0.0078125 0  0.9609375 0.0078125 0  0.96875 0.0078125 0  0.9765625 0.0078125 0  0.984375 0.0078125 0  0.9921875 0.0078125 0  1 0.0078125 0  0 0.015625 0  0.0078125 0.015625 0  0.015625 0.015625 0  0.0234375 0.015625 0  0.03125 0.015625 0  0.0390625 0.015625 0  0.046875 0.015625 0  0.0546875 0.015625 0  0.0625 0.015625 0  0.0703125 0.015625 0  0.078125 0.015625 0  0.0859375 0.015625 0  0.09375 0.015625 0  0.1015625 0.015625 0  0.109375 0.015625 0  0.1171875 0.015625 0  0.125 0.015625 0  0.1328125 0.015625 0  0.140625 0.015625 0  0.1484375 0.015625 0  0.15625 0.015625 0  0.1640625 0.015625 0  0.171875 0.015625 0  0.1796875 0.015625 0  0.1875 0.015625 0  0.1953125 0.015625 0  0.203125 0.015625 0  0.2109375 0.015625 0  0.21875 0.015625 0  0.2265625 0.015625 0  0.234375 0.015625 0  0.2421875 0.015625 0  0.25 0.015625 0  0.2578125 0.015625 0  0.265625 0.015625 0  0.2734375 0.015625 0  0.28125 0.015625 0  0.2890625 0.015625 0  0.296875 0.015625 0  0.3046875 0.015625 0  0.3125 0.015625 0  0.3203125 0.015625 0  0.328125 0.015625 0  0.3359375 0.015625 0  0.34375 0.015625 0  0.3515625 0.015625 0  0.359375 0.015625 0  0.3671875 0.015625 0  0.375 0.015625 0  0.3828125 0.015625 0  0.390625 0.015625 0  0.3984375 0.015625 0  0.40625 0.015625 0  0.4140625 0.015625 0  0.421875 0.015625 0  0.4296875 0.015625 0  0.4375 0.015625 0  0.4453125 0.015625 0  0.453125 0.015625 0  0.4609375 0.015625 0  0.46875 0.015625 0  0.4765625 0.015625 0  0.484375 0.015625 0  0.4921875 0.015625 0  0.5 0.015625 0  0.5078125 0.015625 0  0.515625 0.015625 0  0.5234375 0.015625 0  0.53125 0.015625 0  0.5390625 0.015625 0  0.546875 0.015625 0  0.5546875 0.015625 0  0.5625 0.015625 0  0.5703125 0.015625 0  0.578125 0.015625 0  0.5859375 0.015625 0  0.59375 0.015625 0  0.6015625 0.015625 0  0.609375 0.015625 0  0.6171875 0.015625 0  0.625 0.015625 0  0.6328125 0.015625 0  0.640625 0.015625 0  0.6484375 0.015625 0  0.65625 0.015625 0  0.6640625 0.015625 0  0.671875 0.015625 0  0.6796875 0.015625 0  0.6875 0.015625 0  0.6953125 0.015625 0  0.703125 0.015625 0  0.7109375 0.015625 0  0.71875 0.015625 0  0.7265625 0.015625 0  0.734375 0.015625 0  0.7421875 0.015625 0  0.75 0.015625 0  0.7578125 0.015625 0  0.765625 0.015625 0  0.7734375 0.015625 0  0.78125 0.015625 0  0.7890625 0.015625 0  0.796875 0.015625 0  0.8046875 0.015625 0  0.8125 0.015625 0  0.8203125 0.015625 0  0.828125 0.015625 0  0.8359375 0.015625 0  0.84375 0.015625 0  0.8515625 0.015625 0  0.859375 0.015625 0  0.8671875 0.015625 0  0.875 0.015625 0  0.8828125 0.015625 0  0.890625 0.015625 0  0.8984375 0.015625 0  0.90625 0.015625 0  0.9140625 0.015625 0  0.921875 0.015625 0  0.9296875 0.015625 0  0.9375 0.015625 0  0.9453125 0.015625 0  0.953125 0.015625 0  0.9609375 0.015625 0  0.96875 0.015625 0  0.9765625 0.015625 0  0.984375 0.015625 0  0.9921875 0.015625 0  1 0.015625 0  0 0.0234375 0  0.0078125 0.0234375 0  0.015625 0.0234375 0  0.0234375 0.0234375 0  0.03125 0.0234375 0  0.0390625 0.0234375 0  0.046875 0.0234375 0  0.0546875 0.0234375 0  0.0625 0.0234375 0  0.0703125 0.0234375 0  0.078125 0.0234375 0  0.0859375 0.0234375 0  0.09375 0.0234375 0  0.1015625 0.0234375 0  0.109375 0.0234375 0  0.1171875 0.0234375 0  0.125 0.0234375 0  0.1328125 0.0234375 0  0.140625 0.0234375 0  0.1484375 0.0234375 0  0.15625 0.0234375 0  0.1640625 0.0234375 0  0.171875 0.0234375 0  0.1796875 0.0234375 0  0.1875 0.0234375 0  0.1953125 0.0234375 0  0.203125 0.0234375 0  0.2109375 0.0234375 0  0.21875 0.0234375 0  0.2265625 0.0234375 0  0.234375 0.0234375 0  0.2421875 0.0234375 0  0.25 0.0234375 0  0.2578125 0.0234375 0  0.265625 0.0234375 0  0.2734375 0.0234375 0  0.28125 0.0234375 0  0.2890625 0.0234375 0  0.296875 0.0234375 0  0.3046875 0.0234375 0  0.3125 0.0234375 0  0.3203125 0.0234375 0  0.328125 0.0234375 0  0.3359375 0.0234375 0  0.34375 0.0234375 0  0.3515625 0.0234375 0  0.359375 0.0234375 0  0.3671875 0.0234375 0  0.375 0.0234375 0  0.3828125 0.0234375 0  0.390625 0.0234375 0  0.3984375 0.0234375 0  0.40625 0.0234375 0  0.4140625 0.0234375 0  0.421875 0.0234375 0  0.4296875 0.0234375 0  0.4375 0.0234375 0  0.4453125 0.0234375 0  0.453125 0.0234375 0  0.4609375 0.0234375 0  0.46875 0.0234375 0  0.4765625 0.0234375 0  0.484375 0.0234375 0  0.4921875 0.0234375 0  0.5 0.0234375 0  0.5078125 0.0234375 0  0.515625 0.0234375 0  0.5234375 0.0234375 0  0.53125 0.0234375 0  0.5390625 0.0234375 0  0.546875 0.0234375 0  0.5546875 0.0234375 0  0.5625 0.0234375 0  0.5703125 0.0234375 0  0.578125 0.0234375 0  0.5859375 0.0234375 0  0.59375 0.0234375 0  0.6015625 0.0234375 0  0.609375 0.0234375 0  0.6171875 0.0234375 0  0.625 0.0234375 0  0.6328125 0.0234375 0  0.640625 0.0234375 0  0.6484375 0.0234375 0  0.65625 0.0234375 0  0.6640625 0.0234375 0  0.671875 0.0234375 0  0.6796875 0.0234375 0  0.6875 0.0234375 0  0.6953125 0.0234375 0  0.703125 0.0234375 0  0.7109375 0.0234375 0  0.71875 0.0234375 0  0.7265625 0.0234375 0  0.734375 0.0234375 0  0.7421875 0.0234375 0  0.75 0.0234375 0  0.7578125 0.0234375 0  0.765625 0.0234375 0  0.7734375 0.0234375 0  0.78125 0.0234375 0  0.7890625 0.0234375 0  0.796875 0.0234375 0  0.8046875 0.0234375 0  0.8125 0.0234375 0  0.8203125 0.0234375 0  0.828125 0.0234375 0  0.8359375 0.0234375 0  0.84375 0.0234375 0  0.8515625 0.0234375 0  0.859375 0.0234375 0  0.8671
[...]
<CellData  Scalars="f_16670"> 
<DataArray  type="Float64"  Name="f_16670"  format="ascii">6.1514459116353827e-13   6.1361027876665730e-13   6.8499316910379218e-13   8.7609460458983537e-13   7.3825164649366565e-13   9.5645101949556985e-13   7.8096909356927167e-13   1.0202930446412534e-12   8.1600394165705787e-13   1.0723676993639360e-12   8.4495107497031234e-13   1.1153085564954921e-12   8.6879195891546603e-13   1.1507211706119163e-12   8.8818083675716852e-13   1.1796645818037543e-12   9.0358449076231010e-13   1.2028860715601138e-12   9.1535579581285198e-13   1.2209440194226084e-12   9.2377502292382784e-13   1.2342764517328774e-12   9.2907436996704127e-13   1.2432415203305147e-12   9.3145323521188321e-13   1.2481425931453744e-12   9.3108810655829981e-13   1.2492444518584527e-12   9.2813917344406645e-13   1.2467841077767646e-12   9.2275486428223622e-13   1.2409782282688787e-12   9.1507502568523162e-13   1.2320283536091088e-12   9.0523318601400819e-13   1.2201246295527141e-12   8.9335818554447082e-13   1.2054485163598392e-12   8.7957535854343814e-13   1.1881747754729782e-12   8.6400739194704018e-13   1.1684729358889349e-12   8.4677494641603852e-13   1.1465083787660491e-12   8.2799710004798299e-13   1.1224431374149638e-12   8.0779165775939124e-13   1.0964364817974553e-12   7.8627535771172680e-13   1.0686453378685215e-12   7.6356399791672060e-13   1.0392245787833671e-12   7.3977250030283435e-13   1.0083272155988991e-12   7.1501492546837953e-13   9.7610450855082653e-13   6.8940444822577788e-13   9.4270601498499682e-13   6.6305330186513776e-13   9.0827958654085501e-13   6.3607269736666313e-13   8.7297132542251554e-13   6.0857272256841924e-13   8.3692550771071754e-13   5.8066222528181509e-13   8.0028447993514781e-13   5.5244868371606207e-13   7.6318853424922126e-13   5.2403806687779962e-13   7.2577576628870172e-13   4.9553468734891634e-13   6.8818191950724800e-13   4.6704104826310489e-13   6.5054021876413285e-13   4.3865768623976287e-13   6.1298119586643587e-13   4.1048301168458546e-13   5.7563250922313398e-13   3.8261314773352742e-13   5.3861875952975232e-13   3.5514176894281785e-13   5.0206130316090009e-13   3.2815994074611951e-13   4.6607806475176351e-13   3.0175596058273338e-13   4.3078335037017148e-13   2.7601520146021685e-13   3.9628766232939620e-13   2.5101995876239420e-13   3.6269751689082245e-13   2.2684930090342013e-13   3.3011526568920909e-13   2.0357892450185487e-13   2.9863892186810231e-13   1.8128101464845953e-13   2.6836199173700374e-13   1.6002411077095792e-13   2.3937331269782144e-13   1.3987297857873335e-13   2.1175689809122715e-13   1.2088848858343398e-13   1.8559178970275626e-13   1.0312750154894571e-13   1.6095191839486000e-13   8.6642761319107564e-14   1.3790597354035768e-13   7.1482795328138782e-14   1.1651728165049568e-13   5.7691823141837972e-14   9.6843694720024194e-14   4.5309673296918183e-14   7.8937488641495542e-14   3.4371708733837559e-14   6.2845272145099425e-14   2.4908761032895563e-14   4.8607906529818345e-14   1.6947073671195763e-14   3.6260436524367581e-14   1.0508254488513595e-14   2.5832032540016786e-14   5.6092374941403783e-15   1.7345944521293714e-14   2.2622541527627061e-15   1.0819467596119975e-14   4.7481425511122874e-16   6.2639196990833368e-15   2.4969642448817171e-16   3.6846312556831069e-15   1.5849483208081493e-15   3.0809470399947109e-15   4.4738965526042391e-15   4.4462402459405094e-15   8.9051662857400306e-15   7.7679387874025871e-15   1.4862710516612875e-14   1.3027563811301654e-14   2.2325848948709170e-14   2.0200780382687731e-14   3.1269316378485004e-14   2.9257460241850468e-14   4.1663320479285814e-14   4.0161756529404530e-14   5.3473608834529103e-14   5.2872190311945354e-14   6.6661545066887702e-14   6.7341748747291426e-14   8.1184193861253645e-14   8.3517994664855103e-14   9.6994414656572894e-14   1.0134318730488678e-13   1.1404096376657135e-13   1.2075441394276125e-13   1.3226860466362370e-13   1.4168373209689849e-13   1.5161822611821051e-13   1.6405832196419068e-13   1.7202696787256084e-13   1.8780064871533301e-13   1.9342835350115803e-13   2.1282863424452307e-13   2.1575243007679612e-13   2.3905583793003104e-13   2.3892591425454311e-13   2.6639164596415987e-13   2.6287234430866434e-13   2.9474146871247764e-13   2.8751223767023203e-13   3.2400694557455157e-13   3.1276325349569852e-13   3.5408615680298853e-13   3.3854035973030900e-13   3.8487384169960561e-13   3.6475600403971970e-13   4.1626162240952716e-13   3.9132028810765610e-13   4.4813823280785209e-13   4.1814114459216228e-13   4.8038975163968078e-13   4.4512451605209369e-13   5.1289983917421141e-13   4.7217453504951479e-13   5.4554997644871699e-13   4.9919370470040307e-13   5.7821970635150125e-13   5.2608307869241639e-13   6.1078687543839429e-13   5.5274243981088870e-13   6.4312787547334683e-13   5.7907047581939484e-13   6.7511788345917217e-13   6.0496495148596425e-13   7.0663109886050793e-13   6.3032287536153995e-13   7.3754097663726030e-13   6.5504065960324296e-13   7.6772045426369665e-13   6.7901427099394652e-13   7.9704217091441132e-13   7.0213937088715300e-13   8.2537867651839231e-13   7.2431144140830631e-13   8.5260262803328082e-13   7.4542589470589064e-13   8.7858696984473180e-13   7.6537816121051132e-13   9.0320509432652958e-13   7.8406375203452315e-13   9.2633097792029967e-13   8.0137828934315812e-13   9.4783928688803086e-13   8.1721749676413598e-13   9.6760544525866692e-13   8.3147713968041070e-13   9.8550565549174339e-13   8.4405290215342243e-13   1.0014168596274782e-12   8.5484018281098960e-13   1.0152166247263594e-12   8.6373378599832626e-13   1.0267829311063348e-12   8.7062747579098768e-13   1.0359938342173031e-12   8.7541334795245073e-13   1.0427269602874161e-12   8.7798095627152912e-13   1.0468587798629366e-12   8.7821610176097729e-13   1.0482635799302863e-12   8.7599915006004978e-13   1.0468120196505382e-12   8.7120267411863329e-13   1.0423690995014288e-12   8.6368810799065826e-13   1.0347912855030020e-12   8.5330091048853397e-13   1.0239223861309237e-12   8.3986341026957096e-13   1.0095875352546119e-12   8.2316390649684892e-13   9.9158420467614945e-13   8.0293945091304048e-13   9.6966837954251193e-13   7.7884739067592378e-13   9.4353249755344708e-13   7.5041558799895351e-13   9.1276858661969762e-13   7.1694879763688040e-13   8.7680296372591010e-13   6.7733524464987921e-13   8.3477151341120361e-13   6.2959349728628895e-13   7.8525707457888354e-13   5.6959642126453210e-13   7.2566121076279980e-13   3.8100672948623529e-13   6.5041916896892669e-13   8.7189104883330964e-13   6.7697113820756693e-13   9.4535451681803081e-13   9.4265273884055341e-13   1.0075104991175428e-12   9.9888711645245996e-13   1.0598377488942158e-12   1.0484685178474293e-12   1.1038646406786953e-12   1.0910316233896108e-12   1.1407364437850700e-12   1.1270152777999196e-12   1.1713085169689819e-12   1.1569733451419157e-12   1.1962324407215939e-12   1.1814206590251096e-12   1.2160179397795578e-12   1.2008016377764904e-12   1.2310760006355113e-12   1.2154947905802342e-12   1.2417483099652301e-12   1.2258253109586030e-12   1.2483272897831815e-12   1.2320773316813828e-12   1.2510698472101168e-12   1.2345038722458259e-12   1.2502069408963160e-12   1.2333344477343336e-12   1.2459503386217738e-12   1.2287807709474289e-12   1.2384974605510027e-12   1.2210410031740124e-12   1.2280348951994627e-12   1.2103029258247918e-12   1.2147409784050172e-12   1.1967463131169204e-12   1.1987876996066648e-12   1.1805447115319842e-12   1.1803421169976175e-12   1.1618667751876669e-12   1.1595674086177360e-12   1.1408772657500069e-12   1.1366236498077352e-12   1.1177377964905719e-12   1.1116683821440463e-12   1.0926073791365966e-12   1.0848570217069265e-12   1.0656428173451298e-12   1.0563431421838096e-12   1.0369989798672292e-12   1.0262786593259093e-12   1.0068289782877140e-12   9.9481393737170535e-13   9.7528426897794026e-13   9.6209783290617560e-13   9.4251469402803373e-13   9.2827768855064361e-13   9.0866847312017040e-13   8.9349928608423693e-13   8.7389215566957756e-13   8.5790676675424389e-13   8.3833054074339793e-13   8.2164252500510219e-13   8.0212657093506511e-13   7.8484708073409998e-13   7.6542120509638806e-13   7.4765893426779081e-13   7.2835327418237487e-13   7.1021440764739440e-13   6.9105932362960487e-13   6.7264747505321767e-13   6.5367344517793462e-13   6.3508958506348411e-13   6.1632710071863467e-13   5.9766947678791183e-13   5.7914894025853486e-13   5.6051299189862167e-13   5.4226461597751545e-13   5.2374288411636085e-13   5.0579659392921565e-13   4.8747862774467562e-13   4.6986396499913371e-13   4.5183622647969638e-13   4.3458225628046466e-13   4.1692802375255226e-13   4.0006324421722979e-13   3.8286251565250904e-13   3.6641477043346222e-13   3.4974416741531093e-13   3.3374056134868537e-13   3.1767323439237902e-13   3.0214005240174106e-13   2.8674558833200712e-13   2.7170821776119842e-13   2.5705254968902281e-13   2.4253540619661456e-13   2.2868072672650164e-13   2.1470718391266889e-13   2.0171186204307775e-13   1.8830418491492208e-13   1.7622268705070226e-13   1.6340196948669583e-13   1.5228478508864863e-13   1.4007089140608800e-13   1.2996446359026679e-13   1.1837597435828762e-13   1.0932263578940428e-13   9.8376797968126626e-14   9.0414712392187917e-14   8.0127393927449785e-14   7.3290503622619463e-14   6.3676152573884998e-14   5.7994132002247889e-14   4.9065740307910911e-14   4.4563956111939144e-14   3.6333028052060780e-14   3.3032505718047843e-14   2.5509031156495887e-14   2.3426428401454297e-14   1.6618860864689175e-14   1.5766447974601128e-14   9.6816876250381708e-15   1.0067334826840271e-14   4.7107163673887844e-15   6.3378883278015453e-15   1.7131738755287808e-15   4.5809314221611071e-15   6.9030837978283395e-16   4.7933174592029886e-15   1.6374013926248922e-15   6.9659493019071443e-15   4.5437918401372895e-15   1.1083810724442614e-14   9.3929124706986777e-15   1.7126010057579637e-14   1.6162338513870768e-14   2.5065836015938865e-14   2.4823848488065623e-14   3.4870825626874532e-14   3.5343497092377750e-14   4.6502844105867459e-14   4.7681700003284648e-14   5.9918176551125528e-14   6.1793330452262768e-14   7.5067631220045561e-14   7.7627827325287135e-14   9.1896654196647298e-14   9.5129314605568914e-14   1.1034545518352741e-13   1.1423673186449191e-13   1.3034914413373272e-13   1.3488397552952009e-13   1.5183787837922054e-13   1.5700005057234809e-13   1.7473701994513184e-13   1.8050923228774358e-13   1.9896730266776215e-13   2.0533123781852649e-13   2.2444500865086688e-13   2.3138140689922023e-13   2.5108215371917534e-13   2.5857089153065265e-13   2.7878668128188171e-13   2.8680685395997740e-13   3.0746266421359158e-13   3.1599267260711061e-13   3.3701051416661211e-13   3.4602815531914346e-13   3.6732719777185403e-13   3.7680975944278080e-13   3.9830645904293204e-13   4.0823081803885645e-13   4.2983904753418168e-13   4.4018177175915388e-13   4.6181295141186595e-13   4.7255040562428661e-13   4.9411363480191464e-13   5.0522209003773785e-13   5.2662427858493279e-13   5.3808002523230404e-13   5.5922602402090508e-13   5.7100548859705296e-13   5.9179821804505677e-13   6.0387808371275342e-13   6.2421865955086451e-13   6.3657599051522056e-13   6.5636384546604418e-13   6.6897621540223798e-13   6.8810921564552122e-13   7.0095484043273789e-13   7.1932939524580647e-13   7.3238727029385397e-13   7.4989843323404194e-13   7.6314847592916270e-13   7.7969003549090643e-13   7.9311323329463829e-13   8.0857779074224337e-13   8.2215635578519631e-13   8.3643538719436078e-13   8.5015291834480917e-13   8.6313681758584838e-13   8.7697847132017900e-13   8.8855656964078703e-13   9.0250924143624590e-13   9.1256979862022346e-13   9.2662231704110349e-13   9.3505247773765416e-13   9.4919581407554969e-13   9.5588152114284351e-13   9.7010901829677493e-13   9.7493487310523068e-13   9.8924249853667101e-13   9.9209155514038058e-13   1.0064781842472323e-12   1.0072316603593887e-12   1.0216993986560288e-12   1.0202362814453921e-12   1.0347908367943581e-12   1.0309873539848973e-12   1.0456384740468049e-12   1.0393673909880732e-12   1.0541293865301317e-12   1.0452590759051626e-12   1.0601514586032670e-12   1.0485446691751221e-12   1.0635929439530343e-12   1.0491051660569707e-12   1.0643418349819969e-12   1.0468191178104754e-12   1.0622849780225747e-12   1.0415609904692995e-12   1.0573068476677274e-12   1.0331988787568777e-12   1.0492878587244614e-12   1.0215913065121507e-12   1.0381020444441713e-12   1.0065827136401333e-12   1.0236138594677802e-12   9.8799702949730277e-13   1.0056737706029941e-12   9.6562843406226373e-13   9.8411218266584945e-13   9.3922799195470816e-13   9.5873115286159715e-13   9.0848438676624686e-13   9.2929346404709003e-13   8.7299704927099935e-13   8.9550970634127383e-13   8.3224352015384304e-13   8.5702915516815363e-13   7.8556664790595405e-13   8.1346357507540641e-13   7.3237727656613260e-13   7.6459355820990259e-13   5.6267974366952027e-13   7.1170294514813089e-13   9.4362381391221193e-13   7.2150311063509888e-13   9.9318559858792335e-13   9.9544089649473730e-13   1.0400027675980042e-12   1.0364562855376502e-12   1.0816185328542543e-12   1.0746684614291041e-12   1.1176492008665017e-12   1.1085205445627554e-12   1.1482397350853718e-12   1.1376212471894055e-12   1.1736733604063504e-12   1.1619745989731944e-12   1.1942566242507960e-12   1.1817306409736604e-12   1.2102835043951353e-12   1.1970924622609958e-12   1.2220255163755062e-12   1.2082775358842816e-12   1.2297312792016039e-12   1.2155016721633497e-12   1.2336292824185476e-12   1.2189730917701892e-12   1.2339313712222045e-12   1.2188909686823027e-12   1.2308360241099449e-12   1.2154458302293398e-12   1.2245311389777663e-12   1.2088206230671645e-12   1.2151962947633544e-12   1.1991919187266854e-12   1.2030045433616650e-12   1.1867310402354866e-12   1.1881238087639567e-12   1.1716050317493645e-12   1.1707179673244222e-12   1.1539774552656559e-12   1.1509476728605001e-12   1.1340090245981734e-12   1.1289709783450691e-12   1.1118580957501090e-12   1.1049437955600345e-12   1.0876810348169329e-12   1.0790202252100016e-12   1.0616324829606434e-12   1.0513527833223970e-12   1.0338655359329491e-12   1.0220925439314090e-12   1.0045318526524045e-12   9.9138921426188767e-13   9.7378170526724167e-13   9.5939115490232475e-13   9.4176398074555947e-13   9.2624535532272141e-13   9.0862614254261441e-13   8.9209737286017555e-13   8.7451415927501732e-13   8.5709124190842772e-13   8.3957240626052171e-13   8.2136935879152172e-13   8.0394354475339001e-13   7.8507234682571949e-13   7.6776838298796891e-13   7.4833890546129802e-13   7.3118572249316291e-13   7.1130564661395175e-13   6.9433219264717900e-13   6.7410692105015440e-13   6.5734207605911379e-13   6.3687463703696479e-13   6.2034712691762956e-13   5.9973807338337528e-13   5.8347638428025479e-13   5.6282368876710835e-13   5.4685598214097940e-13   5.2625492866417698e-13   5.1060895750584130e-13   4.9015203161255264e-13   4.7485505817316658e-13   4.5463183583838095e-13   4.3971055121734679e-13   4.1980758757173523e-13   4.0528803340748909e-13   3.8578875193228634e-13   3.7169624452478720e-13   3.5268082749918949e-13   3.3903988453286338e-13   3.2058516531737286e-13   3.0741943546664424e-13   2.8959879326635653e-13   2.7693098884136457e-13   2.5981424645224205e-13   2.4766607929516557e-13   2.3131940434468067e-13   2.1971152512209207e-13   2.0419733530097958e-13   1.9314927638950992e-13   1.7852614906903760e-13   1.6805627114204574e-13   1.5437885783890588e-13   1.4450430031846920e-13   1.3182324634464078e-13   1.2255988182139949e-13   1.1092175144444941e-13   1.0228414419649299e-13   9.1731351647486158e-14   8.3732720341039983e-14   7.4303466969336822e-14   6.6955651656829186e-14   5.8683869501567432e-14   5.1997302975074241e-14   4.4912604922532836e-14   3.8896288521131513e-14   3.3023925356296034e-14   2.7685409264326911e-14   2.3046233712735355e-14   1.8391601822206781e-14   1.5002039812843603e-14   1.1035899183160522e-14   8.9079284165549252e-15   5.6334033660606951e-15   4.7745393339514601e-15   2.1932701853485288e-15   2.6065597072694782e-15   7.1870620955578600e-16   2.4027285714094291e-15   1.2069779915551380e-15   4.1558537013702695e-15   3.6494335930519521e-15   7.8528407887343806e-15   8.0315364141153242e-15   1.3474734911491620e-14   1.4332911302486950e-14   2.0996774239784631e-14   2.2527402864721651e-14   3.0388455911640003e-14   3.2583145903536328e-14   4.1613613928963295e-14   4.4462647833359480e-14   5.4630508970908797e-14   5.8122882957367294e-14   6.9391929880836856e-14   7.3515398353896060e-14   8.5845306688855009e-14   9.0586431217240367e-14   1.0393283487381299e-13   1.0927703738710428e-13   1.2359161060298933e-13   1.2952323074254326e-13   1.4475377668491866e-13   1.5125613323954551e-13   1.6734667887669537e-13   1.7440213521071163e-13   1.9129303216756602e-13   1.9888306551190290e-13   2.1651109670319117e-13   2.2461637126214548e-13   2.4291486293140872e-13   2.5151530664881131e-13   2.7041424545101467e-13   2.7948913036129607e-13   2.9891528523229375e-13   3.0844331127962929e-13   3.2832035959867699e-13   3.3827974182526689e-13   3.5852839951888777e-13   3.6889695851409031e-13   3.8943511359828816e-13   4.0019036911866729e-13   4.2093321826325404e-13   4.3205248593639113e-13   4.5291267350125078e-13   4.6437316451712928e-13   4.8526092352861818e-13   4.9703984727609302e-13   5.1786314167502124e-13   5.2993781126610140e-13   5.5060247888308297e-13   5.6295041950707693e-13   5.8336031499453563e-13   5.9595937516487073e-13   6.1601651209585537e-13   6.2884497773661893e-13   6.4844966905799335e-13   6.6148638058886809e-13   6.8053737641900456e-13   6.9376184888079376e-13   7.1215647062332523e-13   7.2554901711107794e-13   7.4318328668159278e-13   7.5672514526154652e-13   7.7349390800212495e-13   7.8716737256721079e-13   8.0296441227033759e-13   8.1675296773655221e-13   8.3147111192957721e-13   8.4535957447501799e-13   8.5889078779535784e-13   8.7286545092257275e-13   8.8510091395664674e-13   8.9914970146914667e-13   9.0997987202453506e-13   9.2409249930103156e-13   9.3340715231699361e-13   9.4757529763145899e-13   9.5526353916354012e-13   9.6948102734797015e-13   9.7543127705863479e-13   9.8969427840625104e-13   9.9379421358504928e-13   1.0081014618015041e-12   1.0102379141330811e-12   1.0245909482195015e-12   1.0246497425128986e-12   1.0390531789508209e-12   1.0369188997578162e-12   1.0513807433663834e-12   1.0469364118065312e-12   1.0614684162896836e-12   1.0545950543312390e-12   1.0692131471036380e-12   1.0597891997282199e-12   1.0745139905934585e-12   1.0624145680255228e-12   1.0772719680253060e-12   1.0623678584980649e-12   1.0773898445907538e-12   1.0595462344248288e-12   1.0747718086722170e-12   1.0538466287101254e-12   1.0693230386214338e-12   1.0451648368039278e-12   1.0609491482123659e-12   1.0333943704038727e-12   1.0495555176645454e-12   1.0184250740630472e-12   1.0350465559933336e-12   1.0001415863781643e-12   1.0173250296485313e-12   9.7842192461121995e-13   9.9629179343601893e-13   9.5313694659041601e-13   9.7184671964171349e-13   9.2415262510142409e-13   9.4389272964200198e-13   8.9134032777993987e-13   9.1234776062364556e-13   8.5461099119266006e-13   8.7717827747928155e-13   8.1403152506329122e-13   8.3849799749534493e-13   7.7026612889631421e-13   7.9688688412378374e-13   6.1151211805579533e-13   7.5445139111192168e-13   9.9646241054227186e-13   7.5364811362056825e-13   1.0321315241043848e-12   1.0361957613626042e-12   1.0676756535205203e-12   1.0667736737205879e-12   1.1003308264537108e-12   1.0961057695967884e-12   1.1291075577743539e-12   1.1225528288727584e-12   1.1536990628326959e-12   1.1454370472234727e-12   1.1740714387466982e-12   1.1645114494947359e-12   1.1903080669944383e-12   1.1797292870792529e-12   1.2025447861770134e-12   1.1911432364347561e-12   1.2109403253156565e-12   1.1988574848968539e-12   1.2156621240098936e-12   1.2030031371085012e-12   1.2168795389689218e-12   1.2037250553830147e-12   1.2147607537930710e-12   1.2011747453226981e-12   1.2094715517347993e-12   1.1955065427432853e-12   1.20117500