<?xml version="1.0"?>
<VTKFile type="UnstructuredGrid"  version="0.1"  >
<UnstructuredGrid>
<Piece  NumberOfPoints="16641" NumberOfCells="32768">
<Points>
<DataArray  type="Float64"  NumberOfComponents="3"  format="ascii">0 0 0  0.0078125 0 0  0.015625 0 0  0.0234375 0 0  0.03125 0 0  0.0390625 0 0  0.046875 0 0  0.0546875 0 0  0.0625 0 0  0.0703125 0 0  0.078125 0 0  0.0859375 0 0  0.09375 0 0  0.1015625 0 0  0.109375 0 0  0.1171875 0 0  0.125 0 0  0.1328125 0 0  0.140625 0 0  0.1484375 0 0  0.15625 0 0  0.1640625 0 0  0.171875 0 0  0.1796875 0 0  0.1875 0 0  0.1953125 0 0  0.203125 0 0  0.2109375 0 0  0.21875 0 0  0.2265625 0 0  0.234375 0 0  0.2421875 0 0  0.25 0 0  0.2578125 0 0  0.265625 0 0  0.2734375 0 0  0.28125 0 0  0.2890625 0 0  0.296875 0 0  0.3046875 0 0  0.3125 0 0  0.3203125 0 0  0.328125 0 0  0.3359375 0 0  0.34375 0 0  0.3515625 0 0  0.359375 0 0  0.3671875 0 0  0.375 0 0  0.3828125 0 0  0.390625 0 0  0.3984375 0 0  0.40625 0 0  0.4140625 0 0  0.421875 0 0  0.4296875 0 0  0.4375 0 0  0.4453125 0 0  0.453125 0 0  0.4609375 0 0  0.46875 0 0  0.4765625 0 0  0.484375 0 0  0.4921875 0 0  0.5 0 0  0.5078125 0 0  0.515625 0 0  0.5234375 0 0  0.53125 0 0  0.5390625 0 0  0.546875 0 0  0.5546875 0 0  0.5625 0 0  0.5703125 0 0  0.578125 0 0  0.5859375 0 0  0.59375 0 0  0.6015625 0 0  0.609375 0 0  0.6171875 0 0  0.625 0 0  0.6328125 0 0  0.640625 0 0  0.6484375 0 0  0.65625 0 0  0.6640625 0 0  0.671875 0 0  0.6796875 0 0  0.6875 0 0  0.6953125 0 0  0.703125 0 0  0.7109375 0 0  0.71875 0 0  0.7265625 0 0  0.734375 0 0  0.7421875 0 0  0.75 0 0  0.7578125 0 0  0.765625 0 0  0.7734375 0 0  0.78125 0 0  0.7890625 0 0  0.796875 0 0  0.8046875 0 0  0.8125 0 0  0.8203125 0 0  0.828125 0 0  0.8359375 0 0  0.84375 0 0  0.8515625 0 0  0.859375 0 0  0.8671875 0 0  0.875 0 0  0.8828125 0 0  0.890625 0 0  0.8984375 0 0  0.90625 0 0  0.9140625 0 0  0.921875 0 0  0.9296875 0 0  0.9375 0 0  0.9453125 0 0  0.953125 0 0  0.9609375 0 0  0.96875 0 0  0.9765625 0 0  0.984375 0 0  0.9921875 0 0  1 0 0  0 0.0078125 0  0.0078125 0.0078125 0  0.015625 0.0078125 0  0.0234375 0.0078125 0  0.03125 0.0078125 0  0.0390625 0.0078125 0  0.046875 0.0078125 0  0.0546875 0.0078125 0  0.0625 0.0078125 0  0.0703125 0.0078125 0  0.078125 0.0078125 0  0.0859375 0.0078125 0  0.09375 0.0078125 0  0.1015625 0.0078125 0  0.109375 0.0078125 0  0.1171875 0.0078125 0  0.125 0.0078125 0  0.1328125 0.0078125 0  0.140625 0.0078125 0  0.1484375 0.0078125 0  0.15625 0.0078125 0  0.1640625 0.0078125 0  0.171875 0.0078125 0  0.1796875 0.0078125 0  0.1875 0.0078125 0  0.1953125 0.0078125 0  0.203125 0.0078125 0  0.2109375 0.0078125 0  0.21875 0.0078125 0  0.2265625 0.0078125 0  0.234375 0.0078125 0  0.2421875 0.0078125 0  0.25 0.0078125 0  0.2578125 0.0078125 0  0.265625 0.0078125 0  0.2734375 0.0078125 0  0.28125 0.0078125 0  0.2890625 0.0078125 0  0.296875 0.0078125 0  0.3046875 0.0078125 0  0.3125 0.0078125 0  0.3203125 0.0078125 0  0.328125 0.0078125 0  0.3359375 0.0078125 0  0.34375 0.0078125 0  0.3515625 0.0078125 0  0.359375 0.0078125 0  0.3671875 0.0078125 0  0.375 0.0078125 0  0.3828125 0.0078125 0  0.390625 0.0078125 0  0.3984375 0.0078125 0  0.40625 0.0078125 0  0.4140625 0.0078125 0  0.421875 0.0078125 0  0.4296875 0.0078125 0  0.4375 0.0078125 0  0.4453125 0.0078125 0  0.453125 0.0078125 0  0.4609375 0.0078125 0  0.46875 0.0078125 0  0.4765625 0.0078125 0  0.484375 0.0078125 0  0.4921875 0.0078125 0  0.5 0.0078125 0  0.5078125 0.0078125 0  0.515625 0.0078125 0  0.5234375 0.0078125 0  0.53125 0.0078125 0  0.5390625 0.0078125 0  0.546875 0.0078125 0  0.5546875 0.0078125 0  0.5625 0.0078125 0  0.5703125 0.0078125 0  0.578125 0.0078125 0  0.5859375 0.0078125 0  0.59375 0.0078125 0  0.6015625 0.0078125 0  0.609375 0.0078125 0  0.6171875 0.0078125 0  0.625 0.0078125 0  0.6328125 0.0078125 0  0.640625 0.0078125 0  0.6484375 0.0078125 0  0.65625 0.0078125 0  0.6640625 0.0078125 0  0.671875 0.0078125 0  0.6796875 0.0078125 0  0.6875 0.0078125 0  0.6953125 0.0078125 0  0.703125 0.0078125 0  0.7109375 0.0078125 0  0.71875 0.0078125 0  0.7265625 0.0078125 0  0.734375 0.0078125 0  0.7421875 0.0078125 0  0.75 0.0078125 0  0.7578125 0.0078125 0  0.765625 0.0078125 0  0.7734375 0.0078125 0  0.78125 0.0078125 0  0.7890625 0.0078125 0  0.796875 0.0078125 0  0.8046875 0.0078125 0  0.8125 0.0078125 0  0.8203125 0.0078125 0  0.828125 0.0078125 0  0.8359375 0.0078125 0  0.84375 0.0078125 0  0.8515625 0.0078125 0  0.859375 0.0078125 0  0.8671875 0.0078125 0  0.875 0.0078125 0  0.8828125 0.0078125 0  0.890625 0.0078125 0  0.8984375 0.0078125 0  0.90625 0.0078125 0  0.9140625 0.0078125 0  0.921875 0.0078125 0  0.9296875 0.0078125 0  0.9375 0.0078125 0  0.9453125 0.0078125 0  0.953125 0.0078125 0  0.9609375 0.0078125 0  0.96875 0.0078125 0  0.9765625 0.0078125 0  0.984375 0.0078125 0  0.9921875 0.0078125 0  1 0.0078125 0  0 0.015625 0  0.0078125 0.015625 0  0.015625 0.015625 0  0.0234375 0.015625 0  0.03125 0.015625 0  0.0390625 0.015625 0  0.046875 0.015625 0  0.0546875 0.015625 0  0.0625 0.015625 0  0.0703125 0.015625 0  0.078125 0.015625 0  0.0859375 0.015625 0  0.09375 0.015625 0  0.1015625 0.015625 0  0.109375 0.015625 0  0.1171875 0.015625 0  0.125 0.015625 0  0.1328125 0.015625 0  0.140625 0.015625 0  0.1484375 0.015625 0  0.15625 0.015625 0  0.1640625 0.015625 0  0.171875 0.015625 0  0.1796875 0.015625 0  0.1875 0.015625 0  0.1953125 0.015625 0  0.203125 0.015625 0  0.2109375 0.015625 0  0.21875 0.015625 0  0.2265625 0.015625 0  0.234375 0.015625 0  0.2421875 0.015625 0  0.25 0.015625 0  0.2578125 0.015625 0  0.265625 0.015625 0  0.2734375 0.015625 0  0.28125 0.015625 0  0.2890625 0.015625 0  0.296875 0.015625 0  0.3046875 0.015625 0  0.3125 0.015625 0  0.3203125 0.015625 0  0.328125 0.015625 0  0.3359375 0.015625 0  0.34375 0.015625 0  0.3515625 0.015625 0  0.359375 0.015625 0  0.3671875 0.015625 0  0.375 0.015625 0  0.3828125 0.015625 0  0.390625 0.015625 0  0.3984375 0.015625 0  0.40625 0.015625 0  0.4140625 0.015625 0  0.421875 0.015625 0  0.4296875 0.015625 0  0.4375 0.015625 0  0.4453125 0.015625 0  0.453125 0.015625 0  0.4609375 0.015625 0  0.46875 0.015625 0  0.4765625 0.015625 0  0.484375 0.015625 0  0.4921875 0.015625 0  0.5 0.015625 0  0.5078125 0.015625 0  0.515625 0.015625 0  0.5234375 0.015625 0  0.53125 0.015625 0  0.5390625 0.015625 0  0.546875 0.015625 0  0.5546875 0.015625 0  0.5625 0.015625 0  0.5703125 0.015625 0  0.578125 0.015625 0  0.5859375 0.015625 0  0.59375 0.015625 0  0.6015625 0.015625 0  0.609375 0.015625 0  0.6171875 0.015625 0  0.625 0.015625 0  0.6328125 0.015625 0  0.640625 0.015625 0  0.6484375 0.015625 0  0.65625 0.015625 0  0.6640625 0.015625 0  0.671875 0.015625 0  0.6796875 0.015625 0  0.6875 0.015625 0  0.6953125 0.015625 0  0.703125 0.015625 0  0.7109375 0.015625 0  0.71875 0.015625 0  0.7265625 0.015625 0  0.734375 0.015625 0  0.7421875 0.015625 0  0.75 0.015625 0  0.7578125 0.015625 0  0.765625 0.015625 0  0.7734375 0.015625 0  0.78125 0.015625 0  0.7890625 0.015625 0  0.796875 0.015625 0  0.8046875 0.015625 0  0.8125 0.015625 0  0.8203125 0.015625 0  0.828125 0.015625 0  0.8359375 0.015625 0  0.84375 0.015625 0  0.8515625 0.015625 0  0.859375 0.015625 0  0.8671875 0.015625 0  0.875 0.015625 0  0.8828125 0.015625 0  0.890625 0.015625 0  0.8984375 0.015625 0  0.90625 0.015625 0  0.9140625 0.015625 0  0.921875 0.015625 0  0.9296875 0.015625 0  0.9375 0.015625 0  0.9453125 0.015625 0  0.953125 0.015625 0  0.9609375 0.015625 0  0.96875 0.015625 0  0.9765625 0.015625 0  0.984375 0.015625 0  0.9921875 0.015625 0  1 0.015625 0  0 0.0234375 0  0.0078125 0.0234375 0  0.015625 0.0234375 0  0.0234375 0.0234375 0  0.03125 0.0234375 0  0.0390625 0.0234375 0  0.046875 0.0234375 0  0.0546875 0.0234375 0  0.0625 0.0234375 0  0.0703125 0.0234375 0  0.078125 0.0234375 0  0.0859375 0.0234375 0  0.09375 0.0234375 0  0.1015625 0.0234375 0  0.109375 0.0234375 0  0.1171875 0.0234375 0  0.125 0.0234375 0  0.1328125 0.0234375 0  0.140625 0.0234375 0  0.1484375 0.0234375 0  0.15625 0.0234375 0  0.1640625 0.0234375 0  0.171875 0.0234375 0  0.1796875 0.0234375 0  0.1875 0.0234375 0  0.1953125 0.0234375 0  0.203125 0.0234375 0  0.2109375 0.0234375 0  0.21875 0.0234375 0  0.2265625 0.0234375 0  0.234375 0.0234375 0  0.2421875 0.0234375 0  0.25 0.0234375 0  0.2578125 0.0234375 0  0.265625 0.0234375 0  0.2734375 0.0234375 0  0.28125 0.0234375 0  0.2890625 0.0234375 0  0.296875 0.0234375 0  0.3046875 0.0234375 0  0.3125 0.0234375 0  0.3203125 0.0234375 0  0.328125 0.0234375 0  0.3359375 0.0234375 0  0.34375 0.0234375 0  0.3515625 0.0234375 0  0.359375 0.0234375 0  0.3671875 0.0234375 0  0.375 0.0234375 0  0.3828125 0.0234375 0  0.390625 0.0234375 0  0.3984375 0.0234375 0  0.40625 0.0234375 0  0.4140625 0.0234375 0  0.421875 0.0234375 0  0.4296875 0.0234375 0  0.4375 0.0234375 0  0.4453125 0.0234375 0  0.453125 0.0234375 0  0.4609375 0.0234375 0  0.46875 0.0234375 0  0.4765625 0.0234375 0  0.484375 0.0234375 0  0.4921875 0.0234375 0  0.5 0.0234375 0  0.5078125 0.0234375 0  0.515625 0.0234375 0  0.5234375 0.0234375 0  0.53125 0.0234375 0  0.5390625 0.0234375 0  0.546875 0.0234375 0  0.5546875 0.0234375 0  0.5625 0.0234375 0  0.5703125 0.0234375 0  0.578125 0.0234375 0  0.5859375 0.0234375 0  0.59375 0.0234375 0  0.6015625 0.0234375 0  0.609375 0.0234375 0  0.6171875 0.0234375 0  0.625 0.0234375 0  0.6328125 0.0234375 0  0.640625 0.0234375 0  0.6484375 0.0234375 0  0.65625 0.0234375 0  0.6640625 0.0234375 0  0.671875 0.0234375 0  0.6796875 0.0234375 0  0.6875 0.0234375 0  0.6953125 0.0234375 0  0.703125 0.0234375 0  0.7109375 0.0234375 0  0.71875 0.0234375 0  0.7265625 0.0234375 0  0.734375 0.0234375 0  0.7421875 0.0234375 0  0.75 0.0234375 0  0.7578125 0.0234375 0  0.765625 0.0234375 0  0.7734375 0.0234375 0  0.78125 0.0234375 0  0.7890625 0.0234375 0  0.796875 0.0234375 0  0.8046875 0.0234375 0  0.8125 0.0234375 0  0.8203125 0.0234375 0  0.828125 0.0234375 0  0.8359375 0.0234375 0  0.84375 0.0234375 0  0.8515625 0.0234375 0  0.859375 0.0234375 0  0.8671
[...]
<CellData  Scalars="f_89"> 
<DataArray  type="Float64"  Name="f_89"  format="ascii">9.2227054712638037e-11   8.9825903325444113e-11   1.8752186140876469e-10   2.4354371268571364e-10   3.2454326542844762e-10   4.6844901956710469e-10   5.0298009928648061e-10   7.7428790794930699e-10   7.2239129820641241e-10   1.1601515386697321e-09   9.8223069726726186e-10   1.6249970302613153e-09   1.2818538142652250e-09   2.1676209420093363e-09   1.6205211370901898e-09   2.7866500801577306e-09   1.9974004200563822e-09   3.4805389524298895e-09   2.4115687657749139e-09   4.2475702197846694e-09   2.8620147754767584e-09   5.0858568081189455e-09   3.3476408706811830e-09   5.9933451126751254e-09   3.8672658203954974e-09   6.9678190127799596e-09   4.4196274809890383e-09   8.0069045382799148e-09   5.0033857446203704e-09   9.1080750887194075e-09   5.6171256890734672e-09   1.0268657137243839e-08   6.2593609187814552e-09   1.1485836371401152e-08   6.9285370875237275e-09   1.2756664231281097e-08   7.6230355925712526e-09   1.4078064814288112e-08   8.3411774294933699e-09   1.5446842118458168e-08   9.0812271973812620e-09   1.6859687598696621e-08   9.8413972439828172e-09   1.8313188012476789e-08   1.0619851939982558e-08   1.9803833532172278e-08   1.1414712071266848e-08   2.1328026101087125e-08   1.2224059338558384e-08   2.2882088010835637e-08   1.3045940953290192e-08   2.4462270678438270e-08   1.3878374317425842e-08   2.6064763599916133e-08   1.4719351777513086e-08   2.7685703457978673e-08   1.5566845439498556e-08   2.9321183362115198e-08   1.6418812033379903e-08   3.0967262196854381e-08   1.7273197816932525e-08   3.2619974055899776e-08   1.8127943504107477e-08   3.4275337740123611e-08   1.8980989208579997e-08   3.5929366293840555e-08   1.9830279390070133e-08   3.7578076558402585e-08   2.0673767788901221e-08   3.9217498720045456e-08   2.1509422341583155e-08   4.0843685824858922e-08   2.2335230060681462e-08   4.2452723244981255e-08   2.3149201870993265e-08   4.4040738065801708e-08   2.3949377387673678e-08   4.5603908376716222e-08   2.4733829626386979e-08   4.7138472439598347e-08   2.5500669633779964e-08   4.8640737715162495e-08   2.6248051026666706e-08   5.0107089723890634e-08   2.6974174428588077e-08   5.1534000721475417e-08   2.7677291795466756e-08   5.2918038165212681e-08   2.8355710615907384e-08   5.4255872955270819e-08   2.9007797980158514e-08   5.5544287425867936e-08   2.9631984504486486e-08   5.6780183071498089e-08   3.0226768104064008e-08   5.7960587985644790e-08   3.0790717603461834e-08   5.9082663998243372e-08   3.1322476177394911e-08   6.0143713489771355e-08   3.1820764611878802e-08   6.1141185870604485e-08   3.2284384379449991e-08   6.2072683704954252e-08   3.2712220520199103e-08   6.2935968468369401e-08   3.3103244321906474e-08   6.3728965923939747e-08   3.3456515792309034e-08   6.4449771102671353e-08   3.3771185918343706e-08   6.5096652877466588e-08   3.4046498705703428e-08   6.5668058119618153e-08   3.4281792996815460e-08   6.6162615426961768e-08   3.4476504056205539e-08   6.6579138416191731e-08   3.4630164928684673e-08   6.6916628566631759e-08   3.4742407558403746e-08   6.7174277617525759e-08   3.4812963671439358e-08   6.7351469503408078e-08   3.4841665418237802e-08   6.7447781828497599e-08   3.4828445773071174e-08   6.7462986875695115e-08   3.4773338692056092e-08   6.7397052146015994e-08   3.4676479025589828e-08   6.7250140427911504e-08   3.4538102191440253e-08   6.7022609397891598e-08   3.4358543601261361e-08   6.6715010751870101e-08   3.4138237849340249e-08   6.6328088866685354e-08   3.3877717660857785e-08   6.5862779001504838e-08   3.3577612603219000e-08   6.5320205036954123e-08   3.3238647565865774e-08   6.4701676760181797e-08   3.2861641007206419e-08   6.4008686703789485e-08   3.2447502979541551e-08   6.3242906541863000e-08   3.1997232929595260e-08   6.2406183057895256e-08   3.1511917285919235e-08   6.1500533686486074e-08   3.0992726834989360e-08   6.0528141647736504e-08   3.0440913895211926e-08   5.9491350679729010e-08   2.9857809291757452e-08   5.8392659385511885e-08   2.9244819144989392e-08   5.7234715204465569e-08   2.8603421474353320e-08   5.6020308028710235e-08   2.7935162629705909e-08   5.4752363470886572e-08   2.7241653558565536e-08   5.3433935809530136e-08   2.6524565915607002e-08   5.2068200621639536e-08   2.5785628025918785e-08   5.0658447121786301e-08   2.5026620711719144e-08   4.9208070228612957e-08   2.4249372991723738e-08   4.7720562375580318e-08   2.3455757663052852e-08   4.6199505086071525e-08   2.2647686778529503e-08   4.4648560332797488e-08   2.1827107027733740e-08   4.3071461704317829e-08   2.0995995033582047e-08   4.1472005396317075e-08   2.0156352577281215e-08   3.9854041052117855e-08   1.9310201760251782e-08   3.8221462474448469e-08   1.8459580118374753e-08   3.6578198227881068e-08   1.7606535695835784e-08   3.4928202159259815e-08   1.6753122094005358e-08   3.3275443853069438e-08   1.5901393506116566e-08   3.1623899050009590e-08   1.5053399747871290e-08   2.9977540048603781e-08   1.4211181299319337e-08   2.8340326112958989e-08   1.3376764365769670e-08   2.6716193911759550e-08   1.2552155972713251e-08   2.5109048007617068e-08   1.1739339104491970e-08   2.3522751423147361e-08   1.0940267898798323e-08   2.1961116303430596e-08   1.0156862907811133e-08   2.0427894698178648e-08   9.3910064373519278e-09   1.8926769484479801e-08   8.6445379740774523e-09   1.7461345451525194e-08   7.9192497108624628e-09   1.6035140567310073e-08   7.2168821807267379e-09   1.4651577447104265e-08   6.5391200070538067e-09   1.3313975042490228e-08   5.8875877792059777e-09   1.2025540567968748e-08   5.2638460603536979e-09   1.0789361681658712e-08   4.6693875326142978e-09   9.6083989342330207e-09   4.1056332845694199e-09   8.4854784978398888e-09   3.5739292410835146e-09   7.4232851846491189e-09   3.0755427336514191e-09   6.4243557590707098e-09   2.6116592031672471e-09   5.4910725433557248e-09   2.1833790177645276e-09   4.6256573072435845e-09   1.7917143760422084e-09   3.8301654194910396e-09   1.4375862408075427e-09   3.1064802205307261e-09   1.1218212088859244e-09   2.4563075424245160e-09   8.4514814437980286e-10   1.8811702498276289e-09   6.0819424972902882e-10   1.3824025803935494e-09   4.1147991554321110e-10   9.6114388940042290e-10   2.5541089225860207e-10   6.1833106301848570e-10   1.4026414266783374e-10   3.5468815617011092e-10   6.6156680513963404e-11   1.7071019363863335e-10   3.2957730884649002e-11   6.6633936626679468e-11   3.0013255462297221e-11   4.2377205936553221e-11   3.8312122700300823e-10   3.1831965013837872e-10   6.0954172560262825e-10   6.0352085972888070e-10   9.1684629444933401e-10   9.0838585594124742e-10   1.3039901878338660e-09   1.2932968231146009e-09   1.7698955264402990e-09   1.7571563855446582e-09   2.3133503082943937e-09   2.2987408250344489e-09   2.9329815927064512e-09   2.9166716359158940e-09   3.6272469271244584e-09   3.6094050874906025e-09   4.3944327279715832e-09   4.3752285867733509e-09   5.2326557656194247e-09   5.2122608998092499e-09   6.1398662412169171e-09   6.1184545434623440e-09   7.1138518319032196e-09   7.0915994702634340e-09   8.1522424272422243e-09   8.1293276119015670e-09   9.2525154184783559e-09   9.2291180625024262e-09   1.0412001461416403e-08   1.0388302782485788e-08   1.1627890663158553e-08   1.1604072750741625e-08   1.2897239154272536e-08   1.2873484518289780e-08   1.4216976017776756e-08   1.4193467126947663e-08   1.5583910548526632e-08   1.5560829364192117e-08   1.6994739818938155e-08   1.6972267328743364e-08   1.8446056528912456e-08   1.8424372282767457e-08   1.9934357118079427e-08   1.9913638768390702e-08   2.1456050118193138e-08   2.1436472966181170e-08   2.3007464723818007e-08   2.2989201273433925e-08   2.4584859560361220e-08   2.4568079080590464e-08   2.6184431626466421e-08   2.6169299723534111e-08   2.7802325388640670e-08   2.7789003588931734e-08   2.9434642006813775e-08   2.9423287351284462e-08   3.1077448666558891e-08   3.1068213317746175e-08   3.2726787996276315e-08   3.2719818859123118e-08   3.4378687546931043e-08   3.4374125902700486e-08   3.6029169309273946e-08   3.6027150465531806e-08   3.7674259247745739e-08   3.7674912203620523e-08   3.9309996827606417e-08   3.9313443954295014e-08   4.0932444508954266e-08   4.0938801250166198e-08   4.2537697191277423e-08   4.2547071777358012e-08   4.4121891578604168e-08   4.4134384762785839e-08   4.5681215447939606e-08   4.5696920258804025e-08   4.7211916795061017e-08   4.7230918309464971e-08   4.8710312838012785e-08   4.8732687973594982e-08   5.0172798855130427e-08   5.0198616183279813e-08   5.1595856837436396e-08   5.1625176416101194e-08   5.2976063931954433e-08   5.3008937161686723e-08   5.4310100660018581e-08   5.4346570158084835e-08   5.5594758885594332e-08   5.5634858384557044e-08   5.6826949518856732e-08   5.6870703785431114e-08   5.8003709932416910e-08   5.8051134709011977e-08   5.9122211076710562e-08   5.9173313044228706e-08   6.0179764272260362e-08   6.0234541036647687e-08   6.1173827667657558e-08   6.1232267766108893e-08   6.2102012342608588e-08   6.2164095275108096e-08   6.2962088044997335e-08   6.3027784325097106e-08   6.3751988547280253e-08   6.3821259775982182e-08   6.4469816607599671e-08   6.4542615569641467e-08   6.5113848525194032e-08   6.5190119305644995e-08   6.5682538279044005e-08   6.5762216402012921e-08   6.6174521238837422e-08   6.6257533826675645e-08   6.6588617440991665e-08   6.6674883393357699e-08   6.6923834416909515e-08   6.7013264612203383e-08   6.7179369575582470e-08   6.7271867088825211e-08   6.7354612125225277e-08   6.7450072467802038e-08   6.7449144534843288e-08   6.7547455911649079e-08   6.7462743531366473e-08   6.7563787114936842e-08   6.7395380628223536e-08   6.7499030851889110e-08   6.7247222184753693e-08   6.7353347051690076e-08   6.7018628998134069e-08   6.7127090405950742e-08   6.6710155426844651e-08   6.6820809507518751e-08   6.6322548045578822e-08   6.6435245519879535e-08   6.5856743841079576e-08   6.5971330385377606e-08   6.5313867946770196e-08   6.5430184574413067e-08   6.4695230924475236e-08   6.4813114377350084e-08   6.4002325601187518e-08   6.4121608751843336e-08   6.3236823463946354e-08   6.3357335729347434e-08   6.2400570627790413e-08   6.2522138389105634e-08   6.1495583378718257e-08   6.1618030412229408e-08   6.0524043310369962e-08   6.0647191221980460e-08   5.9488292059930456e-08   5.9611960728021806e-08   5.8390825659677085e-08   5.8514833680730669e-08   5.7234288514029330e-08   5.7358453654003938e-08   5.6021467022717247e-08   5.6145606668271308e-08   5.4755282856319797e-08   5.4879214471221971e-08   5.3438785910705453e-08   5.3562327488720503e-08   5.2075146949275497e-08   5.2198117469712370e-08   5.0667649953198639e-08   5.0789869832544596e-08   4.9219684199746309e-08   4.9340975741412009e-08   4.7734736085859388e-08   4.7854923926285333e-08   4.6216380717060755e-08   4.6335292266247123e-08   4.4668273281485656e-08   4.4785739158375588e-08   4.3094140231913432e-08   4.3209994691044841e-08   4.1497770293260308e-08   4.1611851645407386e-08   3.9883005320155444e-08   3.9995156342507690e-08   3.8253731026414309e-08   3.8363799363000732e-08   3.6613867605821198e-08   3.6721706157589992e-08   3.4967360271565672e-08   3.5072827572324976e-08   3.3318169731017781e-08   3.3421130313570340e-08   3.1670262624279709e-08   3.1770587370301673e-08   3.0027601946076302e-08   3.0125168422452124e-08   2.8394137474220557e-08   2.8488830254040272e-08   2.6773796229343342e-08   2.6865507196090154e-08   2.5170472985319908e-08   2.5259101621520133e-08   2.3588020856268355e-08   2.3673474513486886e-08   2.2030241979918904e-08   2.2112436132018489e-08   2.0500878320424114e-08   2.0579736798017663e-08   1.9003602611321163e-08   1.9079057818275851e-08   1.7542009459870266e-08   1.7614002571073318e-08   1.6119606632585511e-08   1.6188087773693374e-08   1.4739806541394855e-08   1.4804734950975941e-08   1.3405917948868710e-08   1.3467262123773186e-08   1.2121137909277280e-08   1.2178875734929708e-08   1.0888543961134627e-08   1.0942662829173662e-08   9.7110865850097283e-09   9.7615835016025561e-09   8.5915819372466633e-09   8.6384636277199968e-09   7.5327048679802080e-09   7.5759878849350217e-09   6.5369822261371771e-09   6.5766930729616418e-09   5.6067864486675997e-09   5.6429617353834016e-09   4.7443294218754730e-09   4.7770160793333330e-09   3.9516565887670843e-09   3.9809121819782403e-09   3.2306412560586694e-09   3.2565344608379978e-09   2.5829790203025805e-09   2.6055903688851004e-09   2.0101821784486769e-09   2.0296052514276266e-09   1.5135738945546322e-09   1.5299172688977970e-09   1.0942817315145885e-09   1.1076722440314258e-09   7.5322986240490830e-10   7.6381823952745867e-10   4.9112873385044910e-10   4.9909964327992738e-10   3.0845994985644546e-10   3.1405068607776362e-10   2.0545248532619232e-10   2.0898939767251451e-10   1.8204742123863939e-10   1.8401959802485105e-10   1.8012058069944683e-10   2.3909576018692758e-10   8.5587481739121993e-10   6.9916922863481839e-10   1.1617740160251353e-09   1.1550333191668304e-09   1.5476812512375873e-09   1.5386739815378685e-09   2.0123150329547610e-09   2.0012197385137363e-09   2.5543841777550099e-09   2.5413773922053490e-09   3.1724812879666076e-09   3.1577366704771336e-09   3.8650497764211260e-09   3.8487384968502944e-09   4.6303721961688264e-09   4.6126638679561398e-09   5.4665668494491013e-09   5.4476306331093714e-09   6.3715883571117476e-09   6.3515938207993994e-09   7.3432304089967578e-09   7.3223480306262838e-09   8.3791298284225100e-09   8.3575311938883336e-09   9.4767715085229789e-09   9.4546292908602931e-09   1.0633493986953916e-08   1.0610981778750808e-08   1.1846495528110441e-08   1.1823787578086889e-08   1.3112840636710190e-08   1.3090111523360220e-08   1.4429466950354370e-08   1.4406891215767445e-08   1.5793192474663006e-08   1.5770944233171598e-08   1.7200723131216254e-08   1.7178975661947774e-08   1.8648660592131876e-08   1.8627585923979309e-08   2.0133510377567156e-08   2.0113278869787007e-08   2.1651690193832262e-08   2.1632470116992001e-08   2.3199538489248620e-08   2.3181495608737767e-08   2.4773323206492881e-08   2.4756620371153617e-08   2.6369250708748995e-08   2.6354047445908859e-08   2.7983474857420670e-08   2.7969926976228171e-08   2.9612106219878425e-08   2.9600365423951691e-08   3.1251221383539775e-08   3.1241434894291133e-08   3.2896872354742400e-08   3.2889182545980890e-08   3.4545096018323566e-08   3.4539640064011704e-08   3.6191923636750410e-08   3.6188833171453031e-08   3.7833390363816113e-08   3.7832791157720713e-08   3.9465544751142363e-08   3.9467556400290053e-08   4.1084458225395718e-08   4.1089193856632507e-08   4.2686234508947705e-08   4.2693800503350944e-08   4.4267018969691088e-08   4.4277514699824542e-08   4.5823007867307387e-08   4.5836525455098255e-08   4.7350457481169970e-08   4.7367081572083167e-08   4.8845693094891160e-08   4.8865500651073392e-08   5.0305117816221661e-08   5.0328177929440749e-08   5.1725221210685538e-08   5.1751594933859140e-08   5.3102587729941290e-08   5.3132327928344931e-08   5.4433904909772326e-08   5.4467056134303968e-08   5.5715971325386934e-08   5.5752569703516305e-08   5.6945704277788105e-08   5.6985777427100028e-08   5.8120147196036734e-08   5.8163714158919930e-08   5.9236476737711561e-08   5.9283547935047454e-08   6.0292009569591171e-08   6.0342586777799048e-08   6.1284208810621854e-08   6.1338285158650718e-08   6.2210690126734751e-08   6.2268250113553481e-08   6.3069227454279767e-08   6.3130246990420553e-08   6.3857758348026605e-08   6.3922204813917116e-08   6.4574388934108739e-08   6.4642221262298719e-08   6.5217398456420218e-08   6.5288567234024140e-08   6.5785243409393878e-08   6.5859690999341670e-08   6.6276561242781640e-08   6.6354221927487678e-08   6.6690173632190481e-08   6.6770973774428199e-08   6.7025089306059115e-08   6.7108947531803801e-08   6.7280506422420162e-08   6.7367333821264472e-08   6.7455814491618881e-08   6.7545514835018578e-08   6.7550595836336305e-08   6.7643065814953761e-08   6.7564626588324577e-08   6.7659756067172492e-08   6.7497877220382439e-08   6.7595549508846570e-08   6.7350512607734938e-08   6.7450604747988689e-08   6.7122891623485613e-08   6.7225274692595848e-08   6.6815566267071495e-08   6.6920105694649341e-08   6.6429280325283391e-08   6.6535836224711179e-08   6.5964967573957527e-08   6.6073395088566839e-08   6.5423749522455170e-08   6.5533899181003239e-08   6.4806932702770634e-08   6.4918650790051613e-08   6.4116005516033192e-08   6.4229134450623244e-08   6.3352634639987543e-08   6.3467013364637985e-08   6.2518661005929621e-08   6.2634125385282525e-08   6.1616095357486961e-08   6.1732478583997281e-08   6.0647113397746939e-08   6.0764246405568805e-08   5.9614050541926256e-08   5.9731762424741342e-08   5.8519396282160502e-08   5.8637514718076240e-08   5.7365788182422095e-08   5.7484139861787760e-08   5.6156005515647045e-08   5.6274416572235122e-08   5.4892962560055493e-08   5.5011259003533559e-08   5.3579701567725813e-08   5.3697709718493473e-08   5.2219385428434386e-08   5.2336932349962044e-08   5.0815290036900873e-08   5.0932203969795508e-08   4.9370796391452465e-08   4.9486907183154535e-08   4.7889382437866491e-08   4.8004521970095553e-08   4.6374614678046492e-08   4.6488617289813171e-08   4.4830139565520832e-08   4.4942842470874738e-08   4.3259674706896336e-08   4.3370918406819210e-08   4.1666999892595930e-08   4.1776628578130153e-08   4.0055947974438261e-08   4.0163809924723488e-08   3.8430395616983045e-08   3.8536343584617993e-08   3.6794253940583828e-08   3.6898145529353856e-08   3.5151459080338553e-08   3.5253157111226184e-08   3.3505962685245489e-08   3.3605335550128986e-08   3.1861722375946172e-08   3.1958644379996444e-08   3.0222692188727662e-08   3.0317043878051085e-08   2.8592813025102506e-08   2.8684481501007265e-08   2.6976003131653756e-08   2.7064882349877289e-08   2.5376148631932096e-08   2.5462139686593860e-08   2.3797094132443638e-08   2.3880105524399798e-08   2.2242633426671014e-08   2.2322581314792912e-08   2.0716500316626427e-08   2.0793308753458318e-08   1.9222359575211379e-08   1.9295960725200939e-08   1.7763798068900619e-08   1.7834132410498373e-08   1.6344316061776835e-08   1.6411332572987690e-08   1.4967318720029052e-08   1.5030975048521355e-08   1.3636107835677420e-08   1.3696370454261003e-08   1.2353873786549652e-08   1.2410718136059336e-08   1.1123687749174937e-08   1.1177098370725039e-08   9.9484941788079631e-09   9.9984648397423728e-09   8.8311035692254994e-09   8.8776373871758636e-09   7.7741855023201839e-09   7.8172950753687331e-09   6.7802619944619920e-09   6.8199695474960517e-09   5.8517011419227946e-09   5.8880387047892015e-09   4.9907110627246455e-09   5.0237207020145838e-09   4.1993341238736963e-09   4.2290682612066095e-09   3.4794414330013708e-09   3.5059632984805089e-09   2.8327275582294078e-09   2.8561118530220003e-09   2.2607054198514901e-09   2.2810393014979058e-09   1.7647012691616264e-09   1.7820858368587685e-09   1.3458496327376860e-09   1.3604021922699807e-09   1.0050880569925766e-09   1.0169456115359534e-09   7.4315145239962026e-10   7.5247613871772379e-10   5.6056587422355481e-10   5.6755352043402594e-10   4.5764199699157844e-10   4.6253573081337734e-10   4.3447118080786634e-10   4.3758274296177153e-10   4.9094345786381720e-10   4.9267954000175395e-10   4.8167058493216134e-10   6.2772963862971298e-10   1.5198304315802561e-09   1.2314687926136007e-09   1.9043832340521689e-09   1.8969686734530427e-09   2.3676925820539069e-09   2.3581984963723356e-09   2.9083027438921497e-09   2.8968796068731156e-09   3.5247269244654746e-09   3.5115380004906333e-09   4.2153692619960490e-09   4.2005799548778088e-09   4.9784923641187263e-09   4.9622685235320688e-09   5.8122053733518789e-09   5.7947128739498419e-09   6.7144604412181032e-09   6.6958651605607134e-09   7.6830531515286856e-09   7.6635211248443659e-09   8.7156251575049590e-09   8.6953227475451022e-09   9.8096682256560588e-09   9.7887622149231451e-09   1.0962529250388027e-08   1.0941186825847488e-08   1.2171415981740391e-08   1.2149804620362285e-08   1.34334033086455