<?xml version="1.0"?>
<VTKFile type="UnstructuredGrid"  version="0.1"  >
<UnstructuredGrid>
<Piece  NumberOfPoints="16641" NumberOfCells="32768">
<Points>
<DataArray  type="Float64"  NumberOfComponents="3"  format="ascii">0 0 0  0.0078125 0 0  0.015625 0 0  0.0234375 0 0  0.03125 0 0  0.0390625 0 0  0.046875 0 0  0.0546875 0 0  0.0625 0 0  0.0703125 0 0  0.078125 0 0  0.0859375 0 0  0.09375 0 0  0.1015625 0 0  0.109375 0 0  0.1171875 0 0  0.125 0 0  0.1328125 0 0  0.140625 0 0  0.1484375 0 0  0.15625 0 0  0.1640625 0 0  0.171875 0 0  0.1796875 0 0  0.1875 0 0  0.1953125 0 0  0.203125 0 0  0.2109375 0 0  0.21875 0 0  0.2265625 0 0  0.234375 0 0  0.2421875 0 0  0.25 0 0  0.2578125 0 0  0.265625 0 0  0.2734375 0 0  0.28125 0 0  0.2890625 0 0  0.296875 0 0  0.3046875 0 0  0.3125 0 0  0.3203125 0 0  0.328125 0 0  0.3359375 0 0  0.34375 0 0  0.3515625 0 0  0.359375 0 0  0.3671875 0 0  0.375 0 0  0.3828125 0 0  0.390625 0 0  0.3984375 0 0  0.40625 0 0  0.4140625 0 0  0.421875 0 0  0.4296875 0 0  0.4375 0 0  0.4453125 0 0  0.453125 0 0  0.4609375 0 0  0.46875 0 0  0.4765625 0 0  0.484375 0 0  0.4921875 0 0  0.5 0 0  0.5078125 0 0  0.515625 0 0  0.5234375 0 0  0.53125 0 0  0.5390625 0 0  0.546875 0 0  0.5546875 0 0  0.5625 0 0  0.5703125 0 0  0.578125 0 0  0.5859375 0 0  0.59375 0 0  0.6015625 0 0  0.609375 0 0  0.6171875 0 0  0.625 0 0  0.6328125 0 0  0.640625 0 0  0.6484375 0 0  0.65625 0 0  0.6640625 0 0  0.671875 0 0  0.6796875 0 0  0.6875 0 0  0.6953125 0 0  0.703125 0 0  0.7109375 0 0  0.71875 0 0  0.7265625 0 0  0.734375 0 0  0.7421875 0 0  0.75 0 0  0.7578125 0 0  0.765625 0 0  0.7734375 0 0  0.78125 0 0  0.7890625 0 0  0.796875 0 0  0.8046875 0 0  0.8125 0 0  0.8203125 0 0  0.828125 0 0  0.8359375 0 0  0.84375 0 0  0.8515625 0 0  0.859375 0 0  0.8671875 0 0  0.875 0 0  0.8828125 0 0  0.890625 0 0  0.8984375 0 0  0.90625 0 0  0.9140625 0 0  0.921875 0 0  0.9296875 0 0  0.9375 0 0  0.9453125 0 0  0.953125 0 0  0.9609375 0 0  0.96875 0 0  0.9765625 0 0  0.984375 0 0  0.9921875 0 0  1 0 0  0 0.0078125 0  0.0078125 0.0078125 0  0.015625 0.0078125 0  0.0234375 0.0078125 0  0.03125 0.0078125 0  0.0390625 0.0078125 0  0.046875 0.0078125 0  0.0546875 0.0078125 0  0.0625 0.0078125 0  0.0703125 0.0078125 0  0.078125 0.0078125 0  0.0859375 0.0078125 0  0.09375 0.0078125 0  0.1015625 0.0078125 0  0.109375 0.0078125 0  0.1171875 0.0078125 0  0.125 0.0078125 0  0.1328125 0.0078125 0  0.140625 0.0078125 0  0.1484375 0.0078125 0  0.15625 0.0078125 0  0.1640625 0.0078125 0  0.171875 0.0078125 0  0.1796875 0.0078125 0  0.1875 0.0078125 0  0.1953125 0.0078125 0  0.203125 0.0078125 0  0.2109375 0.0078125 0  0.21875 0.0078125 0  0.2265625 0.0078125 0  0.234375 0.0078125 0  0.2421875 0.0078125 0  0.25 0.0078125 0  0.2578125 0.0078125 0  0.265625 0.0078125 0  0.2734375 0.0078125 0  0.28125 0.0078125 0  0.2890625 0.0078125 0  0.296875 0.0078125 0  0.3046875 0.0078125 0  0.3125 0.0078125 0  0.3203125 0.0078125 0  0.328125 0.0078125 0  0.3359375 0.0078125 0  0.34375 0.0078125 0  0.3515625 0.0078125 0  0.359375 0.0078125 0  0.3671875 0.0078125 0  0.375 0.0078125 0  0.3828125 0.0078125 0  0.390625 0.0078125 0  0.3984375 0.0078125 0  0.40625 0.0078125 0  0.4140625 0.0078125 0  0.421875 0.0078125 0  0.4296875 0.0078125 0  0.4375 0.0078125 0  0.4453125 0.0078125 0  0.453125 0.0078125 0  0.4609375 0.0078125 0  0.46875 0.0078125 0  0.4765625 0.0078125 0  0.484375 0.0078125 0  0.4921875 0.0078125 0  0.5 0.0078125 0  0.5078125 0.0078125 0  0.515625 0.0078125 0  0.5234375 0.0078125 0  0.53125 0.0078125 0  0.5390625 0.0078125 0  0.546875 0.0078125 0  0.5546875 0.0078125 0  0.5625 0.0078125 0  0.5703125 0.0078125 0  0.578125 0.0078125 0  0.5859375 0.0078125 0  0.59375 0.0078125 0  0.6015625 0.0078125 0  0.609375 0.0078125 0  0.6171875 0.0078125 0  0.625 0.0078125 0  0.6328125 0.0078125 0  0.640625 0.0078125 0  0.6484375 0.0078125 0  0.65625 0.0078125 0  0.6640625 0.0078125 0  0.671875 0.0078125 0  0.6796875 0.0078125 0  0.6875 0.0078125 0  0.6953125 0.0078125 0  0.703125 0.0078125 0  0.7109375 0.0078125 0  0.71875 0.0078125 0  0.7265625 0.0078125 0  0.734375 0.0078125 0  0.7421875 0.0078125 0  0.75 0.0078125 0  0.7578125 0.0078125 0  0.765625 0.0078125 0  0.7734375 0.0078125 0  0.78125 0.0078125 0  0.7890625 0.0078125 0  0.796875 0.0078125 0  0.8046875 0.0078125 0  0.8125 0.0078125 0  0.8203125 0.0078125 0  0.828125 0.0078125 0  0.8359375 0.0078125 0  0.84375 0.0078125 0  0.8515625 0.0078125 0  0.859375 0.0078125 0  0.8671875 0.0078125 0  0.875 0.0078125 0  0.8828125 0.0078125 0  0.890625 0.0078125 0  0.8984375 0.0078125 0  0.90625 0.0078125 0  0.9140625 0.0078125 0  0.921875 0.0078125 0  0.9296875 0.0078125 0  0.9375 0.0078125 0  0.9453125 0.0078125 0  0.953125 0.0078125 0  0.9609375 0.0078125 0  0.96875 0.0078125 0  0.9765625 0.0078125 0  0.984375 0.0078125 0  0.9921875 0.0078125 0  1 0.0078125 0  0 0.015625 0  0.0078125 0.015625 0  0.015625 0.015625 0  0.0234375 0.015625 0  0.03125 0.015625 0  0.0390625 0.015625 0  0.046875 0.015625 0  0.0546875 0.015625 0  0.0625 0.015625 0  0.0703125 0.015625 0  0.078125 0.015625 0  0.0859375 0.015625 0  0.09375 0.015625 0  0.1015625 0.015625 0  0.109375 0.015625 0  0.1171875 0.015625 0  0.125 0.015625 0  0.1328125 0.015625 0  0.140625 0.015625 0  0.1484375 0.015625 0  0.15625 0.015625 0  0.1640625 0.015625 0  0.171875 0.015625 0  0.1796875 0.015625 0  0.1875 0.015625 0  0.1953125 0.015625 0  0.203125 0.015625 0  0.2109375 0.015625 0  0.21875 0.015625 0  0.2265625 0.015625 0  0.234375 0.015625 0  0.2421875 0.015625 0  0.25 0.015625 0  0.2578125 0.015625 0  0.265625 0.015625 0  0.2734375 0.015625 0  0.28125 0.015625 0  0.2890625 0.015625 0  0.296875 0.015625 0  0.3046875 0.015625 0  0.3125 0.015625 0  0.3203125 0.015625 0  0.328125 0.015625 0  0.3359375 0.015625 0  0.34375 0.015625 0  0.3515625 0.015625 0  0.359375 0.015625 0  0.3671875 0.015625 0  0.375 0.015625 0  0.3828125 0.015625 0  0.390625 0.015625 0  0.3984375 0.015625 0  0.40625 0.015625 0  0.4140625 0.015625 0  0.421875 0.015625 0  0.4296875 0.015625 0  0.4375 0.015625 0  0.4453125 0.015625 0  0.453125 0.015625 0  0.4609375 0.015625 0  0.46875 0.015625 0  0.4765625 0.015625 0  0.484375 0.015625 0  0.4921875 0.015625 0  0.5 0.015625 0  0.5078125 0.015625 0  0.515625 0.015625 0  0.5234375 0.015625 0  0.53125 0.015625 0  0.5390625 0.015625 0  0.546875 0.015625 0  0.5546875 0.015625 0  0.5625 0.015625 0  0.5703125 0.015625 0  0.578125 0.015625 0  0.5859375 0.015625 0  0.59375 0.015625 0  0.6015625 0.015625 0  0.609375 0.015625 0  0.6171875 0.015625 0  0.625 0.015625 0  0.6328125 0.015625 0  0.640625 0.015625 0  0.6484375 0.015625 0  0.65625 0.015625 0  0.6640625 0.015625 0  0.671875 0.015625 0  0.6796875 0.015625 0  0.6875 0.015625 0  0.6953125 0.015625 0  0.703125 0.015625 0  0.7109375 0.015625 0  0.71875 0.015625 0  0.7265625 0.015625 0  0.734375 0.015625 0  0.7421875 0.015625 0  0.75 0.015625 0  0.7578125 0.015625 0  0.765625 0.015625 0  0.7734375 0.015625 0  0.78125 0.015625 0  0.7890625 0.015625 0  0.796875 0.015625 0  0.8046875 0.015625 0  0.8125 0.015625 0  0.8203125 0.015625 0  0.828125 0.015625 0  0.8359375 0.015625 0  0.84375 0.015625 0  0.8515625 0.015625 0  0.859375 0.015625 0  0.8671875 0.015625 0  0.875 0.015625 0  0.8828125 0.015625 0  0.890625 0.015625 0  0.8984375 0.015625 0  0.90625 0.015625 0  0.9140625 0.015625 0  0.921875 0.015625 0  0.9296875 0.015625 0  0.9375 0.015625 0  0.9453125 0.015625 0  0.953125 0.015625 0  0.9609375 0.015625 0  0.96875 0.015625 0  0.9765625 0.015625 0  0.984375 0.015625 0  0.9921875 0.015625 0  1 0.015625 0  0 0.0234375 0  0.0078125 0.0234375 0  0.015625 0.0234375 0  0.0234375 0.0234375 0  0.03125 0.0234375 0  0.0390625 0.0234375 0  0.046875 0.0234375 0  0.0546875 0.0234375 0  0.0625 0.0234375 0  0.0703125 0.0234375 0  0.078125 0.0234375 0  0.0859375 0.0234375 0  0.09375 0.0234375 0  0.1015625 0.0234375 0  0.109375 0.0234375 0  0.1171875 0.0234375 0  0.125 0.0234375 0  0.1328125 0.0234375 0  0.140625 0.0234375 0  0.1484375 0.0234375 0  0.15625 0.0234375 0  0.1640625 0.0234375 0  0.171875 0.0234375 0  0.1796875 0.0234375 0  0.1875 0.0234375 0  0.1953125 0.0234375 0  0.203125 0.0234375 0  0.2109375 0.0234375 0  0.21875 0.0234375 0  0.2265625 0.0234375 0  0.234375 0.0234375 0  0.2421875 0.0234375 0  0.25 0.0234375 0  0.2578125 0.0234375 0  0.265625 0.0234375 0  0.2734375 0.0234375 0  0.28125 0.0234375 0  0.2890625 0.0234375 0  0.296875 0.0234375 0  0.3046875 0.0234375 0  0.3125 0.0234375 0  0.3203125 0.0234375 0  0.328125 0.0234375 0  0.3359375 0.0234375 0  0.34375 0.0234375 0  0.3515625 0.0234375 0  0.359375 0.0234375 0  0.3671875 0.0234375 0  0.375 0.0234375 0  0.3828125 0.0234375 0  0.390625 0.0234375 0  0.3984375 0.0234375 0  0.40625 0.0234375 0  0.4140625 0.0234375 0  0.421875 0.0234375 0  0.4296875 0.0234375 0  0.4375 0.0234375 0  0.4453125 0.0234375 0  0.453125 0.0234375 0  0.4609375 0.0234375 0  0.46875 0.0234375 0  0.4765625 0.0234375 0  0.484375 0.0234375 0  0.4921875 0.0234375 0  0.5 0.0234375 0  0.5078125 0.0234375 0  0.515625 0.0234375 0  0.5234375 0.0234375 0  0.53125 0.0234375 0  0.5390625 0.0234375 0  0.546875 0.0234375 0  0.5546875 0.0234375 0  0.5625 0.0234375 0  0.5703125 0.0234375 0  0.578125 0.0234375 0  0.5859375 0.0234375 0  0.59375 0.0234375 0  0.6015625 0.0234375 0  0.609375 0.0234375 0  0.6171875 0.0234375 0  0.625 0.0234375 0  0.6328125 0.0234375 0  0.640625 0.0234375 0  0.6484375 0.0234375 0  0.65625 0.0234375 0  0.6640625 0.0234375 0  0.671875 0.0234375 0  0.6796875 0.0234375 0  0.6875 0.0234375 0  0.6953125 0.0234375 0  0.703125 0.0234375 0  0.7109375 0.0234375 0  0.71875 0.0234375 0  0.7265625 0.0234375 0  0.734375 0.0234375 0  0.7421875 0.0234375 0  0.75 0.0234375 0  0.7578125 0.0234375 0  0.765625 0.0234375 0  0.7734375 0.0234375 0  0.78125 0.0234375 0  0.7890625 0.0234375 0  0.796875 0.0234375 0  0.8046875 0.0234375 0  0.8125 0.0234375 0  0.8203125 0.0234375 0  0.828125 0.0234375 0  0.8359375 0.0234375 0  0.84375 0.0234375 0  0.8515625 0.0234375 0  0.859375 0.0234375 0  0.8671
[...]
<CellData  Scalars="f_34341"> 
<DataArray  type="Float64"  Name="f_34341"  format="ascii">1.7849894618759443e-13   1.7798003131695325e-13   1.9772321763516332e-13   2.5250241314301384e-13   2.1218673455401075e-13   2.7417113233299639e-13   2.2363169529356739e-13   2.9110130870586500e-13   2.3288296083806239e-13   3.0466559270340199e-13   2.4040203960156698e-13   3.1562732036468009e-13   2.4647405325672783e-13   3.2445366275592999e-13   2.5128993306730585e-13   3.3145423942846748e-13   2.5498653373302972e-13   3.3684862412944667e-13   2.5766774599568950e-13   3.4080166849291028e-13   2.5941635878070894e-13   3.4344322071917674e-13   2.6030111036466601e-13   3.4487977962920842e-13   2.6038108343456084e-13   3.4520172630004208e-13   2.5970855450461214e-13   3.4448799855488042e-13   2.5833090197298226e-13   3.4280921690000479e-13   2.5629191793074330e-13   3.4022983442420534e-13   2.5363272937152292e-13   3.3680964999622327e-13   2.5039245588711713e-13   3.3260489340619974e-13   2.4660868501848921e-13   3.2766901517590963e-13   2.4231781851226814e-13   3.2205326776790977e-13   2.3755532540837502e-13   3.1580713652021851e-13   2.3235592664620514e-13   3.0897866027149061e-13   2.2675372856095533e-13   3.0161466974640764e-13   2.2078231768112588e-13   2.9376096368215969e-13   2.1447482587467345e-13   2.8546243725848206e-13   2.0786397251505943e-13   2.7676317354401378e-13   2.0098208869434358e-13   2.6770650600100705e-13   1.9386112726296137e-13   2.5833505811412569e-13   1.8653266162464587e-13   2.4869076481033116e-13   1.7902787560001475e-13   2.3881487935661418e-13   1.7137754614750982e-13   2.2874796858527973e-13   1.6361202035584277e-13   2.1852989868412566e-13   1.5576118791151474e-13   2.0819981345865669e-13   1.4785444997302860e-13   1.9779610652829311e-13   1.3992068522925502e-13   1.8735638869858199e-13   1.3198821380520814e-13   1.7691745150694418e-13   1.2408475960415946e-13   1.6651522789419228e-13   1.1623741149239782e-13   1.5618475059718514e-13   1.0847258382059856e-13   1.4596010905559613e-13   1.0081597654894022e-13   1.3587440520734512e-13   9.3292535369362072e-14   1.2595970878929825e-13   8.5926412057436327e-14   1.1624701247976651e-13   7.8740925318901165e-14   1.0676618728249817e-13   7.1758522359175227e-14   9.7545938497898406e-14   6.5000741352739204e-14   8.8613762527771982e-14   5.8488175040044415e-14   7.9995904852075288e-14   5.2240435589799508e-14   7.1717319376450955e-14   4.6276120885884893e-14   6.3801629382319917e-14   4.0612782378190193e-14   5.6271090281004777e-14   3.5266894633057798e-14   4.9146554351354223e-14   3.0253826717573063e-14   4.2447437666632808e-14   2.5587815487815586e-14   3.6191689301974869e-14   2.1281940912920437e-14   3.0395763011807696e-14   1.7348103512733260e-14   2.5074591478482580e-14   1.3797003995696428e-14   2.0241563265265208e-14   1.0638125165741316e-14   1.5908502559756106e-14   7.8797161692068675e-15   1.2085651811736344e-14   5.5287791337296311e-15   8.7816573382222133e-15   3.5910582517786170e-15   6.0035579673530992e-15   2.0710313518931500e-15   3.7567767870430630e-15   9.7190398890344010e-16   2.0451160375001522e-15   2.9560608551052460e-16   8.7075520043638982e-16   4.2791137029841846e-17   2.3425229909894896e-16   2.1283799967905491e-16   1.3454844418204940e-16   8.0385526102701592e-16   5.6897562442687907e-16   1.8126881937035045e-15   1.5332677506084289e-15   3.2349282811961871e-15   3.0215749406343899e-15   5.0649252993692324e-15   5.0264810298516565e-15   7.2958019304779278e-15   7.5390242804511251e-15   9.9194708769871928e-15   1.0548721253765293e-14   1.2926654436692710e-14   1.4043593795929488e-14   1.6306906498803841e-14   1.8010199099181853e-14   2.0048636900840799e-14   2.2433662752657988e-14   2.4139138098390250e-14   2.7297714743187401e-14   2.8564614066548523e-14   3.2584728289232184e-14   3.3310211382801802e-14   3.8275761469865752e-14   3.8360052382728247e-14   4.4350601494671703e-14   4.3697270334041729e-14   5.0787811567080134e-14   4.9304046511213521e-14   5.7564780196459101e-14   5.5161649077857342e-14   6.4657772837611218e-14   6.1250473688071544e-14   7.2041985768298398e-14   6.7550085661610324e-14   7.9691602015317370e-14   7.4039263630776038e-14   8.7579849220241950e-14   8.0696044531505125e-14   9.5679059288495244e-14   8.7497769802225418e-14   1.0396072966544149e-13   9.4421132629008190e-14   1.1239558604393180e-13   1.0144222610576812e-13   1.2095364635848934e-13   1.0853659213168713e-13   1.2960428585421827e-13   1.1567927087438555e-13   1.3831630304433005e-13   1.2284485060987615e-13   1.4705798633169870e-13   1.3000751773840373e-13   1.5579718107452229e-13   1.3714110676079248e-13   1.6450135685757654e-13   1.4421914996553408e-13   1.7313767469504395e-13   1.5121492657857722e-13   1.8167305389030536e-13   1.5810151107694536e-13   1.9007423824935305e-13   1.6485182033551196e-13   1.9830786127623045e-13   1.7143865924691687e-13   2.0634050999677145e-13   1.7783476438797826e-13   2.1413878696200551e-13   1.8401284524246835e-13   2.2166936993782570e-13   1.8994562239925612e-13   2.2889906870466393e-13   1.9560586203616937e-13   2.3579487827094834e-13   2.0096640587320282e-13   2.4232402772952479e-13   2.0600019556310331e-13   2.4845402373723611e-13   2.1068029028264056e-13   2.5415268745359122e-13   2.1497987593050815e-13   2.5938818342378554e-13   2.1887226392585735e-13   2.6412903852883775e-13   2.2233087702746292e-13   2.6834414859594347e-13   2.2532921879316224e-13   2.7200276959154958e-13   2.2784082216304963e-13   2.7507448922550711e-13   2.2983917117919074e-13   2.7752917360300666e-13   2.3129758754971652e-13   2.7933688147104768e-13   2.3218907063735586e-13   2.8046773594760385e-13   2.3248607471063916e-13   2.8089173960795485e-13   2.3216020012018722e-13   2.8057851273873789e-13   2.3118176411072612e-13   2.7949692559438305e-13   2.2951919956298970e-13   2.7761458140893377e-13   2.2713820159897057e-13   2.7489708452035160e-13   2.2400049427173156e-13   2.7130699131037423e-13   2.2006200609824830e-13   2.6680227949300854e-13   2.1527009078020335e-13   2.6133406187244828e-13   2.0955913647574434e-13   2.5484306945799987e-13   2.0284330816049526e-13   2.4725403835810940e-13   1.9500384981302273e-13   2.3846632767779518e-13   1.8586519896910400e-13   2.2833729145989092e-13   1.7514562943236488e-13   2.1665049898636253e-13   1.6234159897740285e-13   2.0304876219936695e-13   1.4640202489108635e-13   1.8687376627040529e-13   9.7656475043757894e-14   1.6671002986716162e-13   2.5107784459374280e-13   1.9505348862451065e-13   2.7083249933267582e-13   2.7000680302259192e-13   2.8730705109835497e-13   2.8482640252736322e-13   3.0095456256488819e-13   2.9772052787697342e-13   3.1222858711534124e-13   3.0860481875176924e-13   3.2146788632541861e-13   3.1761780550425332e-13   3.2892560573237364e-13   3.2492736654503386e-13   3.3479500960148199e-13   3.3068814243428479e-13   3.3922772786572720e-13   3.3503332251572392e-13   3.4234636900734079e-13   3.3807633351705978e-13   3.4425309973082889e-13   3.3991466094733204e-13   3.4503547441920806e-13   3.4063348352765391e-13   3.4477043390766588e-13   3.4030860040246486e-13   3.4352708845223790e-13   3.3900866304682896e-13   3.4136868530108689e-13   3.3679684613002019e-13   3.3835402082906123e-13   3.3373209336931282e-13   3.3453846762770214e-13   3.2987004821165320e-13   3.2997472983504563e-13   3.2526375158261604e-13   3.2471340326307291e-13   3.1996416677513846e-13   3.1880339310884420e-13   3.1402057512907757e-13   3.1229222602651433e-13   3.0748087409165044e-13   3.0522628285323595e-13   3.0039180091020581e-13   2.9765097091018980e-13   2.9279909907261831e-13   2.8961084972078015e-13   2.8474764018945313e-13   2.8114972049936462e-13   2.7628151099843760e-13   2.7231068720549267e-13   2.6744407284032144e-13   2.6313619497548262e-13   2.5827799911096057e-13   2.5366805059361145e-13   2.4882529520129482e-13   2.4394742855595420e-13   2.3912730431240436e-13   2.3401486552343931e-13   2.2922470189964213e-13   2.2391024536902308e-13   2.1915748086132079e-13   2.1367277672776709e-13   2.0896492936582309e-13   2.0334096445619276e-13   1.9868560269191930e-13   1.9295257623540373e-13   1.8835729028708056e-13   1.8254460536312325e-13   1.7801697910361927e-13   1.7215323057344552e-13   1.6770081400051421e-13   1.6181377354383252e-13   1.5744405590932107e-13   1.5156065489044131e-13   1.4728103852557880e-13   1.4142734897384948e-13   1.3724512387694264e-13   1.3144633817276430e-13   1.2736865737960459e-13   1.2164906692478769e-13   1.1768292272497900e-13   1.1206589594846724e-13   1.0821809697610345e-13   1.0272605700773284e-13   9.9003206252552643e-14   9.3657608442229394e-14   9.0066082220099917e-14   8.4887391825614176e-14   8.1433319738424915e-14   7.6440989905738782e-14   7.3130235825512824e-14   6.8342686113693068e-14   6.5180830228096577e-14   6.0615425825416879e-14   5.7607747774378355e-14   5.3280779558231216e-14   5.0432242688898022e-14   4.6358908287309622e-14   4.3674145052331578e-14   3.9868530993023476e-14   3.7351829523486354e-14   3.3826894666277541e-14   3.1482186540590241e-14   2.8249746820415046e-14   2.6080596050323057e-14   2.3151310662789098e-14   2.1160903912564307e-14   1.8544263044270541e-14   1.6735401108221349e-14   1.4439715255858146e-14   1.2814805800442402e-14   1.0847196768607800e-14   9.4082483562660903e-15   7.7746419950896723e-15   6.5232594014724581e-15   5.2283801294963186e-15   4.1657609579549522e-15   3.2131281254071104e-15   2.3400607297883319e-15   1.7319868532364416e-15   1.0488495675657026e-15   7.8644046803023269e-16   2.9320214740336850e-16   3.7635902120099236e-16   7.2580890708426429e-17   5.0000432193126407e-16   3.8484313032282051e-16   1.1540390606193981e-15   1.2262515337893847e-15   2.3335391886492467e-15   2.5914877730662395e-15   4.0320095447935613e-15   4.4736694320358284e-15   6.2414027034882383e-15   6.8643701217676014e-15   8.9521410156856047e-15   9.7536427733257823e-15   1.2153141802335437e-14   1.3130046068021057e-14   1.5831845661111972e-14   1.6980673957895921e-14   1.9974247817294356e-14   2.1291188217848032e-14   2.4564932462943767e-14   2.6045853951264011e-14   2.9587110003254505e-14   3.1227577989932157e-14   3.5022657156832610e-14   3.6817950113928123e-14   4.0852159764164883e-14   4.2797286959601203e-14   4.7054958273755367e-14   4.9144678569197610e-14   5.3609195748031198e-14   5.5838037435779978e-14   6.0491868311618152e-14   6.2854149964579024e-14   6.7678877919396245e-14   7.0168730213302152e-14   7.5145087269951365e-14   7.7756475756270447e-14   8.2864376788760456e-14   8.5591125579876705e-14   9.0809703524695764e-14   9.3645519875111539e-14   9.8953161793217831e-14   1.0189166153649973e-13   1.0726604538619293e-13   1.1030077920247509e-13   1.1571891125397172e-13   1.1884339174644031e-13   1.2428164440425704e-13   1.2748937396491729e-13   1.3292352388071413e-13   1.3620802332060081e-13   1.4161328963128214e-13   1.4496812757943257e-13   1.5031921001268497e-13   1.5373803305562512e-13   1.5900914977072497e-13   1.6248571335327078e-13   1.6765063821122055e-13   1.7117883830041535e-13   1.7621093737149128e-13   1.7978484292258819e-13   1.8465710985131410e-13   1.8827099608971813e-13   1.9295608608669731e-13   1.9660446870421168e-13   2.0107473066784534e-13   2.0475240097332623e-13   2.0897990742372100e-13   2.1268196859866478e-13   2.1663854280825994e-13   2.2036044739303921e-13   2.2401768716642144e-13   2.2775527598626695e-13   2.3108457334318881e-13   2.3483411613147064e-13   2.3780667202579499e-13   2.4156491006495818e-13   2.4415174310408248e-13   2.4791593433056968e-13   2.5008788217309846e-13   2.5385584928896164e-13   2.5558356110365944e-13   2.5935374342014203e-13   2.6060766139997398e-13   2.6437917134453570e-13   2.6512949869555861e-13   2.6890218420852601e-13   2.6911883631626628e-13   2.7289335072763442e-13   2.7254588525989659e-13   2.7632376679428283e-13   2.7538128714706582e-13   2.7916505087008423e-13   2.7759607553986723e-13   2.8138932159078444e-13   2.7916160962728955e-13   2.8296915296360554e-13   2.8004947202952046e-13   2.8387750089442495e-13   2.8023131944702216e-13   2.8408759269255781e-13   2.7967867054457047e-13   2.8357276818739238e-13   2.7836260904247665e-13   2.8230625687810044e-13   2.7625337045167878e-13   2.8026086936404474e-13   2.7331976675897309e-13   2.7740857271524174e-13   2.6952838181136709e-13   2.7371990698961823e-13   2.6484243739288880e-13   2.6916318265304772e-13   2.5922018027738790e-13   2.6370337510946911e-13   2.5261256673690895e-13   2.5730060424340854e-13   2.4495991919967904e-13   2.4990806501283888e-13   2.3618712153586961e-13   2.4146930862371839e-13   2.2619695304127370e-13   2.3191505547334991e-13   2.1486210152537109e-13   2.2116104478364264e-13   2.0202254172521492e-13   2.0911441041251484e-13   1.8753861425230964e-13   1.9572689975190283e-13   1.4365857626438444e-13   1.8133666504632557e-13   2.7003503071925785e-13   2.0677087620272661e-13   2.8300285992915663e-13   2.8358603414966411e-13   2.9513876750331769e-13   2.9410024495885900e-13   3.0577018036762126e-13   3.0379082694385256e-13   3.1480491080324727e-13   3.1223274826429694e-13   3.2229657271896413e-13   3.1932733040797910e-13   3.2833534194833442e-13   3.2508552719853325e-13   3.3301619624040631e-13   3.2955796609138714e-13   3.3642924825484634e-13   3.3280902548338692e-13   3.3865726388747474e-13   3.3490616885489779e-13   3.3977574828005600e-13   3.3591559985127544e-13   3.3985386937317394e-13   3.3590072325834096e-13   3.3895554153008938e-13   3.3492183091025343e-13   3.3714042271292271e-13   3.3303628605380702e-13   3.3446475421653801e-13   3.3029887776765674e-13   3.3098203966435698e-13   3.2676220231322166e-13   3.2674358243524266e-13   3.2247701328065624e-13   3.2179890587374518e-13   3.1749252106974637e-13   3.1619607890791672e-13   3.1185663893935942e-13   3.0998196622642718e-13   3.0561617966094634e-13   3.0320241853954124e-13   2.9881700910887693e-13   2.9590241523477842e-13   2.9150416337880034e-13   2.8812616903427307e-13   2.8372193541452595e-13   2.7991720033301000e-13   2.7551393642975123e-13   2.7131838714714323e-13   2.6692313652299588e-13   2.6237199534435520e-13   2.5799188812319352e-13   2.5311969298841855e-13   2.4876193535104707e-13   2.4360255173763823e-13   2.3927441178271993e-13   2.3386103772385693e-13   2.2956982865367625e-13   2.2393499389169660e-13   2.1968805529868639e-13   2.1386361535781559e-13   2.0966829313884455e-13   2.0368541921153807e-13   1.9954904457405334e-13   1.9343820975604396e-13   1.8936807764375656e-13   1.8315904021294571e-13   1.7916238742368573e-13   1.7288417163122360e-13   1.6896815485982928e-13   1.6264902970325239e-13   1.5882070367370087e-13   1.5248816007210337e-13   1.4875445591725887e-13   1.4243518264417934e-13   1.3880288665949574e-13   1.3252274533868013e-13   1.2899847822187728e-13   1.2278247771396545e-13   1.1937267437169574e-13   1.1324494477769267e-13   1.0995583479529344e-13   1.0393960136341902e-13   1.0077719019771834e-13   9.4894747284729913e-14   9.1864798252869029e-14   8.6137483611854104e-14   8.3245500728213166e-14   7.7693670247359104e-14   7.4944881960340907e-14   6.9587885046961021e-14   6.6987228917377297e-14   6.1843384690126343e-14   5.9395493064530099e-14   5.4482067462941803e-14   5.2191254169697736e-14   4.7524438145417431e-14   4.5394686247331242e-14   4.0989575152893504e-14   3.9024525792015680e-14   3.4895100058328622e-14   3.3098042413353697e-14   2.9257149631797451e-14   2.7631012018925031e-14   2.4090350524302584e-14   2.2637692657412363e-14   1.9407796710808333e-14   1.8130803136537438e-14   1.5221029747795398e-14   1.4121504480047830e-14   1.1540021971882659e-14   1.0619384327334646e-14   8.3731626978442736e-15   7.6324443475187309e-15   5.7272474825548883e-15   5.1670907264674651e-15   3.6074705060446579e-15   3.2281277717400349e-15   2.0174201291815721e-15   1.8187546999465667e-15   9.5907764652415562e-16   9.4056561427686010e-16   4.3281927182329809e-16   5.9355271428973238e-16   4.3742137269697119e-16   7.7611274701122642e-16   9.7006895910010415e-16   1.4850567047925216e-15   2.0263674285357076e-15   2.7156227681391434e-15   3.6003575592358616e-15   4.4614924848709946e-15   5.6845337243940075e-15   6.7148101515075060e-15   8.2698653127019114e-15   9.4662053886945974e-15   1.1345821308421660e-14   1.2704818852874334e-14   1.4900397995479470e-14   1.6418331052981983e-14   1.8920149730767467e-14   2.0592994209539207e-14   2.3390222710228594e-14   2.5213667084913868e-14   2.8294391697397961e-14   3.0263852747231291e-14   3.3615099590247519e-14   3.5725739144259019e-14   3.9333499781377495e-14   4.1580242441863730e-14   4.5429501190238531e-14   4.7807053002457454e-14   5.1881815897770219e-14   5.4384683937590791e-14   5.8668009246167166e-14   6.1290522081944880e-14   6.5764552323602585e-14   6.8500881333166692e-14   7.3146876669278342e-14   7.5991058166322018e-14   8.0789431109691889e-14   8.3735389257255678e-14   8.8665740598178532e-14   9.1707311060954240e-14   9.6748466893574696e-14   9.9879421211211723e-14   1.0500947089661549e-13   1.0822354153159724e-13   1.1341987659369643e-13   1.1671078263463780e-13   1.2195013633317471e-13   1.2531160982071996e-13   1.3057009735672741e-13   1.3399591020688495e-13   1.3924906936844966e-13   1.4273306086818226e-13   1.4795589293885334e-13   1.5149199780508633e-13   1.5665900861413956e-13   1.6024128559090917e-13   1.6532652648290515e-13   1.6894918748588213e-13   1.7392629603588510e-13   1.7758373583576383e-13   1.8242597602445775e-13   1.8611280250115974e-13   1.9079310418932774e-13   1.9450416915017085e-13   1.9899516650940425e-13   2.0272559716641001e-13   2.0699966578360192e-13   2.1074489689410613e-13   2.1477418922217847e-13   2.1852999603776769e-13   2.2228647471497672e-13   2.2604900681248258e-13   2.2950447548187647e-13   2.3327029166243281e-13   2.3639642263809243e-13   2.4016252708370548e-13   2.4293088532779692e-13   2.4669476528571192e-13   2.4907682782303987e-13   2.5283649316246125e-13   2.5480366307859560e-13   2.5855768815801505e-13   2.6008130200097614e-13   2.6382887041031244e-13   2.6488019761322860e-13   2.6862115052040791e-13   2.6917138314552773e-13   2.7290627219130289e-13   2.7292650284592371e-13   2.7665664879259604e-13   2.7611783395227809e-13   2.7984539268848275e-13   2.7871829809673413e-13   2.8244633606351244e-13   2.8070145976476377e-13   2.8443404153515665e-13   2.8204150898652762e-13   2.8578380063013067e-13   2.8271322465768426e-13   2.8647161772229646e-13   2.8269191401218958e-13   2.8647417664248164e-13   2.8195332277813211e-13   2.8576878675565020e-13   2.8047350938394896e-13   2.8433330509195265e-13   2.7822867573302627e-13   2.8214603139175373e-13   2.7519494696201324e-13   2.7918557447424333e-13   2.7134809487555861e-13   2.7543069261663353e-13   2.6666320774973063e-13   2.7086012090334787e-13   2.6111433054718775e-13   2.6545242178469770e-13   2.5467415139985045e-13   2.5918594702112997e-13   2.4731393362343662e-13   2.5203911734206761e-13   2.3900419679371223e-13   2.4399150980809076e-13   2.2971748522420335e-13   2.3502699064264770e-13   2.1943729549134747e-13   2.2514237048965276e-13   2.0818806552592138e-13   2.1437272154699205e-13   1.9614807053165152e-13   2.0287285908309222e-13   1.5538460934360556e-13   1.9118742335929755e-13   2.8363693904143778e-13   2.1499164373369899e-13   2.9267089697368447e-13   2.9377095827824819e-13   3.0162964198068465e-13   3.0134429055588888e-13   3.0974854443142611e-13   3.0854430396262703e-13   3.1676113266482676e-13   3.1492033913271728e-13   3.2259143880086249e-13   3.2029113030913672e-13   3.2723883708843540e-13   3.2459552475592269e-13   3.3073448371055769e-13   3.2782771424284397e-13   3.3312328017468446e-13   3.3000898803862089e-13   3.3445572427011431e-13   3.3117436074974710e-13   3.3478405486933265e-13   3.3136575092665403e-13   3.3416044402620210e-13   3.3062836211040403e-13   3.3263620650216136e-13   3.2900874959514933e-13   3.3026151500672047e-13   3.2655380260968438e-13   3.27085359