<?xml version="1.0"?>
<VTKFile type="UnstructuredGrid"  version="0.1"  >
<UnstructuredGrid>
<Piece  NumberOfPoints="4225" NumberOfCells="8192">
<Points>
<DataArray  type="Float64"  NumberOfComponents="3"  format="ascii">0 0 0  0.015625 0 0  0.03125 0 0  0.046875 0 0  0.0625 0 0  0.078125 0 0  0.09375 0 0  0.109375 0 0  0.125 0 0  0.140625 0 0  0.15625 0 0  0.171875 0 0  0.1875 0 0  0.203125 0 0  0.21875 0 0  0.234375 0 0  0.25 0 0  0.265625 0 0  0.28125 0 0  0.296875 0 0  0.3125 0 0  0.328125 0 0  0.34375 0 0  0.359375 0 0  0.375 0 0  0.390625 0 0  0.40625 0 0  0.421875 0 0  0.4375 0 0  0.453125 0 0  0.46875 0 0  0.484375 0 0  0.5 0 0  0.515625 0 0  0.53125 0 0  0.546875 0 0  0.5625 0 0  0.578125 0 0  0.59375 0 0  0.609375 0 0  0.625 0 0  0.640625 0 0  0.65625 0 0  0.671875 0 0  0.6875 0 0  0.703125 0 0  0.71875 0 0  0.734375 0 0  0.75 0 0  0.765625 0 0  0.78125 0 0  0.796875 0 0  0.8125 0 0  0.828125 0 0  0.84375 0 0  0.859375 0 0  0.875 0 0  0.890625 0 0  0.90625 0 0  0.921875 0 0  0.9375 0 0  0.953125 0 0  0.96875 0 0  0.984375 0 0  1 0 0  0 0.015625 0  0.015625 0.015625 0  0.03125 0.015625 0  0.046875 0.015625 0  0.0625 0.015625 0  0.078125 0.015625 0  0.09375 0.015625 0  0.109375 0.015625 0  0.125 0.015625 0  0.140625 0.015625 0  0.15625 0.015625 0  0.171875 0.015625 0  0.1875 0.015625 0  0.203125 0.015625 0  0.21875 0.015625 0  0.234375 0.015625 0  0.25 0.015625 0  0.265625 0.015625 0  0.28125 0.015625 0  0.296875 0.015625 0  0.3125 0.015625 0  0.328125 0.015625 0  0.34375 0.015625 0  0.359375 0.015625 0  0.375 0.015625 0  0.390625 0.015625 0  0.40625 0.015625 0  0.421875 0.015625 0  0.4375 0.015625 0  0.453125 0.015625 0  0.46875 0.015625 0  0.484375 0.015625 0  0.5 0.015625 0  0.515625 0.015625 0  0.53125 0.015625 0  0.546875 0.015625 0  0.5625 0.015625 0  0.578125 0.015625 0  0.59375 0.015625 0  0.609375 0.015625 0  0.625 0.015625 0  0.640625 0.015625 0  0.65625 0.015625 0  0.671875 0.015625 0  0.6875 0.015625 0  0.703125 0.015625 0  0.71875 0.015625 0  0.734375 0.015625 0  0.75 0.015625 0  0.765625 0.015625 0  0.78125 0.015625 0  0.796875 0.015625 0  0.8125 0.015625 0  0.828125 0.015625 0  0.84375 0.015625 0  0.859375 0.015625 0  0.875 0.015625 0  0.890625 0.015625 0  0.90625 0.015625 0  0.921875 0.015625 0  0.9375 0.015625 0  0.953125 0.015625 0  0.96875 0.015625 0  0.984375 0.015625 0  1 0.015625 0  0 0.03125 0  0.015625 0.03125 0  0.03125 0.03125 0  0.046875 0.03125 0  0.0625 0.03125 0  0.078125 0.03125 0  0.09375 0.03125 0  0.109375 0.03125 0  0.125 0.03125 0  0.140625 0.03125 0  0.15625 0.03125 0  0.171875 0.03125 0  0.1875 0.03125 0  0.203125 0.03125 0  0.21875 0.03125 0  0.234375 0.03125 0  0.25 0.03125 0  0.265625 0.03125 0  0.28125 0.03125 0  0.296875 0.03125 0  0.3125 0.03125 0  0.328125 0.03125 0  0.34375 0.03125 0  0.359375 0.03125 0  0.375 0.03125 0  0.390625 0.03125 0  0.40625 0.03125 0  0.421875 0.03125 0  0.4375 0.03125 0  0.453125 0.03125 0  0.46875 0.03125 0  0.484375 0.03125 0  0.5 0.03125 0  0.515625 0.03125 0  0.53125 0.03125 0  0.546875 0.03125 0  0.5625 0.03125 0  0.578125 0.03125 0  0.59375 0.03125 0  0.609375 0.03125 0  0.625 0.03125 0  0.640625 0.03125 0  0.65625 0.03125 0  0.671875 0.03125 0  0.6875 0.03125 0  0.703125 0.03125 0  0.71875 0.03125 0  0.734375 0.03125 0  0.75 0.03125 0  0.765625 0.03125 0  0.78125 0.03125 0  0.796875 0.03125 0  0.8125 0.03125 0  0.828125 0.03125 0  0.84375 0.03125 0  0.859375 0.03125 0  0.875 0.03125 0  0.890625 0.03125 0  0.90625 0.03125 0  0.921875 0.03125 0  0.9375 0.03125 0  0.953125 0.03125 0  0.96875 0.03125 0  0.984375 0.03125 0  1 0.03125 0  0 0.046875 0  0.015625 0.046875 0  0.03125 0.046875 0  0.046875 0.046875 0  0.0625 0.046875 0  0.078125 0.046875 0  0.09375 0.046875 0  0.109375 0.046875 0  0.125 0.046875 0  0.140625 0.046875 0  0.15625 0.046875 0  0.171875 0.046875 0  0.1875 0.046875 0  0.203125 0.046875 0  0.21875 0.046875 0  0.234375 0.046875 0  0.25 0.046875 0  0.265625 0.046875 0  0.28125 0.046875 0  0.296875 0.046875 0  0.3125 0.046875 0  0.328125 0.046875 0  0.34375 0.046875 0  0.359375 0.046875 0  0.375 0.046875 0  0.390625 0.046875 0  0.40625 0.046875 0  0.421875 0.046875 0  0.4375 0.046875 0  0.453125 0.046875 0  0.46875 0.046875 0  0.484375 0.046875 0  0.5 0.046875 0  0.515625 0.046875 0  0.53125 0.046875 0  0.546875 0.046875 0  0.5625 0.046875 0  0.578125 0.046875 0  0.59375 0.046875 0  0.609375 0.046875 0  0.625 0.046875 0  0.640625 0.046875 0  0.65625 0.046875 0  0.671875 0.046875 0  0.6875 0.046875 0  0.703125 0.046875 0  0.71875 0.046875 0  0.734375 0.046875 0  0.75 0.046875 0  0.765625 0.046875 0  0.78125 0.046875 0  0.796875 0.046875 0  0.8125 0.046875 0  0.828125 0.046875 0  0.84375 0.046875 0  0.859375 0.046875 0  0.875 0.046875 0  0.890625 0.046875 0  0.90625 0.046875 0  0.921875 0.046875 0  0.9375 0.046875 0  0.953125 0.046875 0  0.96875 0.046875 0  0.984375 0.046875 0  1 0.046875 0  0 0.0625 0  0.015625 0.0625 0  0.03125 0.0625 0  0.046875 0.0625 0  0.0625 0.0625 0  0.078125 0.0625 0  0.09375 0.0625 0  0.109375 0.0625 0  0.125 0.0625 0  0.140625 0.0625 0  0.15625 0.0625 0  0.171875 0.0625 0  0.1875 0.0625 0  0.203125 0.0625 0  0.21875 0.0625 0  0.234375 0.0625 0  0.25 0.0625 0  0.265625 0.0625 0  0.28125 0.0625 0  0.296875 0.0625 0  0.3125 0.0625 0  0.328125 0.0625 0  0.34375 0.0625 0  0.359375 0.0625 0  0.375 0.0625 0  0.390625 0.0625 0  0.40625 0.0625 0  0.421875 0.0625 0  0.4375 0.0625 0  0.453125 0.0625 0  0.46875 0.0625 0  0.484375 0.0625 0  0.5 0.0625 0  0.515625 0.0625 0  0.53125 0.0625 0  0.546875 0.0625 0  0.5625 0.0625 0  0.578125 0.0625 0  0.59375 0.0625 0  0.609375 0.0625 0  0.625 0.0625 0  0.640625 0.0625 0  0.65625 0.0625 0  0.671875 0.0625 0  0.6875 0.0625 0  0.703125 0.0625 0  0.71875 0.0625 0  0.734375 0.0625 0  0.75 0.0625 0  0.765625 0.0625 0  0.78125 0.0625 0  0.796875 0.0625 0  0.8125 0.0625 0  0.828125 0.0625 0  0.84375 0.0625 0  0.859375 0.0625 0  0.875 0.0625 0  0.890625 0.0625 0  0.90625 0.0625 0  0.921875 0.0625 0  0.9375 0.0625 0  0.953125 0.0625 0  0.96875 0.0625 0  0.984375 0.0625 0  1 0.0625 0  0 0.078125 0  0.015625 0.078125 0  0.03125 0.078125 0  0.046875 0.078125 0  0.0625 0.078125 0  0.078125 0.078125 0  0.09375 0.078125 0  0.109375 0.078125 0  0.125 0.078125 0  0.140625 0.078125 0  0.15625 0.078125 0  0.171875 0.078125 0  0.1875 0.078125 0  0.203125 0.078125 0  0.21875 0.078125 0  0.234375 0.078125 0  0.25 0.078125 0  0.265625 0.078125 0  0.28125 0.078125 0  0.296875 0.078125 0  0.3125 0.078125 0  0.328125 0.078125 0  0.34375 0.078125 0  0.359375 0.078125 0  0.375 0.078125 0  0.390625 0.078125 0  0.40625 0.078125 0  0.421875 0.078125 0  0.4375 0.078125 0  0.453125 0.078125 0  0.46875 0.078125 0  0.484375 0.078125 0  0.5 0.078125 0  0.515625 0.078125 0  0.53125 0.078125 0  0.546875 0.078125 0  0.5625 0.078125 0  0.578125 0.078125 0  0.59375 0.078125 0  0.609375 0.078125 0  0.625 0.078125 0  0.640625 0.078125 0  0.65625 0.078125 0  0.671875 0.078125 0  0.6875 0.078125 0  0.703125 0.078125 0  0.71875 0.078125 0  0.734375 0.078125 0  0.75 0.078125 0  0.765625 0.078125 0  0.78125 0.078125 0  0.796875 0.078125 0  0.8125 0.078125 0  0.828125 0.078125 0  0.84375 0.078125 0  0.859375 0.078125 0  0.875 0.078125 0  0.890625 0.078125 0  0.90625 0.078125 0  0.921875 0.078125 0  0.9375 0.078125 0  0.953125 0.078125 0  0.96875 0.078125 0  0.984375 0.078125 0  1 0.078125 0  0 0.09375 0  0.015625 0.09375 0  0.03125 0.09375 0  0.046875 0.09375 0  0.0625 0.09375 0  0.078125 0.09375 0  0.09375 0.09375 0  0.109375 0.09375 0  0.125 0.09375 0  0.140625 0.09375 0  0.15625 0.09375 0  0.171875 0.09375 0  0.1875 0.09375 0  0.203125 0.09375 0  0.21875 0.09375 0  0.234375 0.09375 0  0.25 0.09375 0  0.265625 0.09375 0  0.28125 0.09375 0  0.296875 0.09375 0  0.3125 0.09375 0  0.328125 0.09375 0  0.34375 0.09375 0  0.359375 0.09375 0  0.375 0.09375 0  0.390625 0.09375 0  0.40625 0.09375 0  0.421875 0.09375 0  0.4375 0.09375 0  0.453125 0.09375 0  0.46875 0.09375 0  0.484375 0.09375 0  0.5 0.09375 0  0.515625 0.09375 0  0.53125 0.09375 0  0.546875 0.09375 0  0.5625 0.09375 0  0.578125 0.09375 0  0.59375 0.09375 0  0.609375 0.09375 0  0.625 0.09375 0  0.640625 0.09375 0  0.65625 0.09375 0  0.671875 0.09375 0  0.6875 0.09375 0  0.703125 0.09375 0  0.71875 0.09375 0  0.734375 0.09375 0  0.75 0.09375 0  0.765625 0.09375 0  0.78125 0.09375 0  0.796875 0.09375 0  0.8125 0.09375 0  0.828125 0.09375 0  0.84375 0.09375 0  0.859375 0.09375 0  0.875 0.09375 0  0.890625 0.09375 0  0.90625 0.09375 0  0.921875 0.09375 0  0.9375 0.09375 0  0.953125 0.09375 0  0.96875 0.09375 0  0.984375 0.09375 0  1 0.09375 0  0 0.109375 0  0.015625 0.109375 0  0.03125 0.109375 0  0.046875 0.109375 0  0.0625 0.109375 0  0.078125 0.109375 0  0.09375 0.109375 0  0.109375 0.109375 0  0.125 0.109375 0  0.140625 0.109375 0  0.15625 0.109375 0  0.171875 0.109375 0  0.1875 0.109375 0  0.203125 0.109375 0  0.21875 0.109375 0  0.234375 0.109375 0  0.25 0.109375 0  0.265625 0.109375 0  0.28125 0.109375 0  0.296875 0.109375 0  0.3125 0.109375 0  0.328125 0.109375 0  0.34375 0.109375 0  0.359375 0.109375 0  0.375 0.109375 0  0.390625 0.109375 0  0.40625 0.109375 0  0.421875 0.109375 0  0.4375 0.109375 0  0.453125 0.109375 0  0.46875 0.109375 0  0.484375 0.109375 0  0.5 0.109375 0  0.515625 0.109375 0  0.53125 0.109375 0  0.546875 0.109375 0  0.5625 0.109375 0  0.578125 0.109375 0  0.59375 0.109375 0  0.609375 0.109375 0  0.625 0.109375 0  0.640625 0.109375 0  0.65625 0.109375 0  0.671875 0.109375 0  0.6875 0.109375 0  0.703125 0.109375 0  0.71875 0.109375 0  0.734375 0.109375 0  0.75 0.109375 0  0.765625 0.109375 0  0.78125 0.109375 0  0.796875 0.109375 0  0.8125 0.109375 0  0.828125 0.109375 0  0.84375 0.109375 0  0.859375 0.109375 0  0.875 0.109375 0  0.890625 0.109375 0  0.90625 0.109375 0  0.921875 0.109375 0  0.9375 0.109375 0  0.953125 0.109375 0  0.96875 0.109375 0  0.984375 0.109375 0  1 0.109375 0  0 0.125 0  0.015625 0.125 0  0.03125 0.125 0  0.046875 0.125 0  0.0625 0.125 0  0.078125 0.125 0  0.09375 0.125 0  0.109375 0.125 0  0.125 0.12
[...]
<CellData  Scalars="f_1157"> 
<DataArray  type="Float64"  Name="f_1157"  format="ascii">1.4888683656331986e-07   1.0861453149418459e-06   1.4886207227149658e-07   1.0851471474824202e-06   1.4884171968573796e-07   1.0842103845592761e-06   1.4882499289228511e-07   1.0833631178279290e-06   1.4881124598711246e-07   1.0825965203729123e-06   1.4879994813438207e-07   1.0819026610425539e-06   1.4879066306825769e-07   1.0812744068916426e-06   1.4878303224652280e-07   1.0807053370828509e-06   1.4877676100549861e-07   1.0801896667478840e-06   1.4877160718162748e-07   1.0797221795207831e-06   1.4876737176034002e-07   1.0792981676408728e-06   1.4876389119112263e-07   1.0789133786751522e-06   1.4876103107202414e-07   1.0785639680403534e-06   1.4875868095973523e-07   1.0782464566158650e-06   1.4875675010482343e-07   1.0779576928312277e-06   1.4875516394745460e-07   1.0776948186945466e-06   1.4875386123826625e-07   1.0774552392937447e-06   1.4875279167322932e-07   1.0772365953617152e-06   1.4875191395115972e-07   1.0770367385481835e-06   1.4875119417887835e-07   1.0768537090814680e-06   1.4875060456242554e-07   1.0766857155415403e-06   1.4875012233380126e-07   1.0765311164976920e-06   1.4874972887177859e-07   1.0763884037907886e-06   1.4874940898284775e-07   1.0762561872643706e-06   1.4874915031451857e-07   1.0761331807680768e-06   1.4874894287833077e-07   1.0760181892757746e-06   1.4874877866414953e-07   1.0759100969751688e-06   1.4874865133085505e-07   1.0758078561980914e-06   1.4874855596148063e-07   1.0757104770729743e-06   1.4874848887334420e-07   1.0756170177894924e-06   1.4874844747584160e-07   1.0755265753743416e-06   1.4874843017041117e-07   1.0754382768827471e-06   1.4874843628880480e-07   1.0753512709167145e-06   1.4874846606728390e-07   1.0752647193856354e-06   1.4874852065574242e-07   1.0751777894281117e-06   1.4874860216211010e-07   1.0750896454173436e-06   1.4874871373374999e-07   1.0749994409738299e-06   1.4874885967899349e-07   1.0749063109103333e-06   1.4874904563350664e-07   1.0748093630360980e-06   1.4874927877791078e-07   1.0747076697462390e-06   1.4874956811506164e-07   1.0746002593223179e-06   1.4874992481769405e-07   1.0744861068691043e-06   1.4875036265985685e-07   1.0743641248120705e-06   1.4875089854879631e-07   1.0742331528785593e-06   1.4875155317782824e-07   1.0740919474827306e-06   1.4875235182540942e-07   1.0739391704339996e-06   1.4875332533126421e-07   1.0737733768879730e-06   1.4875451128725652e-07   1.0735930024538892e-06   1.4875595548899875e-07   1.0733963493758486e-06   1.4875771370424578e-07   1.0731815717018086e-06   1.4875985382636395e-07   1.0729466593568182e-06   1.4876245849602695e-07   1.0726894210378386e-06   1.4876562829238296e-07   1.0724074658535510e-06   1.4876948561690901e-07   1.0720981836371921e-06   1.4877417941993609e-07   1.0717587238715666e-06   1.4877989095235997e-07   1.0713859731817130e-06   1.4878684076462815e-07   1.0709765313679864e-06   1.4879529722328243e-07   1.0705266859812507e-06   1.4880558687391639e-07   1.0700323854780601e-06   1.4881810705071141e-07   1.0694892110426831e-06   1.4883334121946776e-07   1.0688923472202598e-06   1.4885187764660806e-07   1.0682365515906758e-06   1.4887443211504324e-07   1.0675161238087931e-06   1.4885569567187299e-07   1.0667248744675981e-06   2.2675737908023500e-06   5.0238279608217192e-06   2.2665404605784211e-06   5.0216794033047155e-06   2.2656059679059103e-06   5.0197067597442354e-06   2.2647605669964222e-06   5.0179200644206872e-06   2.2639955029830713e-06   5.0163014536643201e-06   2.2633029039279399e-06   5.0148347995641921e-06   2.2626756855512602e-06   5.0135055338011060e-06   2.2621074670120554e-06   5.0123004902178934e-06   2.2615924963137545e-06   5.0112077639415829e-06   2.2611255841068184e-06   5.0102165851619682e-06   2.2607020448349399e-06   5.0093172059051505e-06   2.2603176443148441e-06   5.0085007983379951e-06   2.2599685529630670e-06   5.0077593633301106e-06   2.2596513039880887e-06   5.0070856481401860e-06   2.2593627559539222e-06   5.0064730722301092e-06   2.2591000591998612e-06   5.0059156603274361e-06   2.2588606256634478e-06   5.0054079819528820e-06   2.2586421017101181e-06   5.0049450967136365e-06   2.2584423436225682e-06   5.0045225047514474e-06   2.2582593954414116e-06   5.0041361017828995e-06   2.2580914688854590e-06   5.0037821382405993e-06   2.2579369251105827e-06   5.0034571820701601e-06   2.2577942580918556e-06   5.0031580847831461e-06   2.2576620794370641e-06   5.0028819504010726e-06   2.2575391044582579e-06   5.0026261069675638e-06   2.2574241393463498e-06   5.0023880803273373e-06   2.2573160693077221e-06   5.0021655699048083e-06   2.2572138475338507e-06   5.0019564262276010e-06   2.2571164848869765e-06   5.0017586299742309e-06   2.2570230401930789e-06   5.0015702723257776e-06   2.2569326110422315e-06   5.0013895364331644e-06   2.2568443250018583e-06   5.0012146798076206e-06   2.2567573311547686e-06   5.0010440174677544e-06   2.2566707918783265e-06   5.0008759056700327e-06   2.2565838747843456e-06   5.0007087260761211e-06   2.2564957447427506e-06   5.0005408701903622e-06   2.2564055559134586e-06   5.0003707239296113e-06   2.2563124437121750e-06   5.0001966521722333e-06   2.2562155166378929e-06   5.0000169831475852e-06   2.2561138478889152e-06   4.9998299925137614e-06   2.2560064666944480e-06   4.9996338869810004e-06   2.2558923492879552e-06   4.9994267873334267e-06   2.2557704094482352e-06   4.9992067106933713e-06   2.2556394885328495e-06   4.9989715518733483e-06   2.2554983449260185e-06   4.9987190636521716e-06   2.2553456428231394e-06   4.9984468358090198e-06   2.2551799402738437e-06   4.9981522727384191e-06   2.2549996764012045e-06   4.9978325694571646e-06   2.2548031577186443e-06   4.9974846858241116e-06   2.2545885434637942e-06   4.9971053187561726e-06   2.2543538298721234e-06   4.9966908722427841e-06   2.2540968333154410e-06   4.9962374249338182e-06   2.2538151722380619e-06   4.9957406950794333e-06   2.2535062478301393e-06   4.9951960025818029e-06   2.2531672233912327e-06   4.9945982279297313e-06   2.2527950023564905e-06   4.9939417677652258e-06   2.2523862049788628e-06   4.9932204868494384e-06   2.2519371436940742e-06   4.9924276661914007e-06   2.2514437972367246e-06   4.9915559471196114e-06   2.2509017836314945e-06   4.9905972710958224e-06   2.2503063322489082e-06   4.9895428151037626e-06   2.2496522552101200e-06   4.9883829224945606e-06   2.2489339185332633e-06   4.9871070292297874e-06   2.2480909353297808e-06   4.9857035855605039e-06   7.3412534678190836e-06   1.1810618622617459e-05   7.3390778699277305e-06   1.1807223613514306e-05   7.3371075199488127e-06   1.1804127649819418e-05   7.3353227096212902e-06   1.1801322346994462e-05   7.3337056480644151e-06   1.1798780049324194e-05   7.3322402671894833e-06   1.1796475747836159e-05   7.3309120478427933e-06   1.1794386819164227e-05   7.3297078642744887e-06   1.1792492791010975e-05   7.3286158448210078e-06   1.1790775131279045e-05   7.3276252469660667e-06   1.1789217058346318e-05   7.3267263451681350e-06   1.1787803370191734e-05   7.3259103300311179e-06   1.1786520290388804e-05   7.3251692175782899e-06   1.1785355329183567e-05   7.3244957675237826e-06   1.1784297158071320e-05   7.3238834095676710e-06   1.1783335496481730e-05   7.3233261768537871e-06   1.1782461009300884e-05   7.3228186458222100e-06   1.1781665214118420e-05   7.3223558817697682e-06   1.1780940397199852e-05   7.3219333895178311e-06   1.1780279537274558e-05   7.3215470686332894e-06   1.1779676236337811e-05   7.3211931727184158e-06   1.1779124656738565e-05   7.3208682723302528e-06   1.1778619463898340e-05   7.3205692211343935e-06   1.1778155774062333e-05   7.3202931249321607e-06   1.1777729106554007e-05   7.3200373132414903e-06   1.1777335340042168e-05   7.3197993131328488e-06   1.1776970672374181e-05   7.3195768250551633e-06   1.1776631583574940e-05   7.3193677003989058e-06   1.1776314801636880e-05   7.3191699205770847e-06   1.1776017270763172e-05   7.3189815774052800e-06   1.1775736121743815e-05   7.3188008545934322e-06   1.1775468644177733e-05   7.3186260101578808e-06   1.1775212260260012e-05   7.3184553595879551e-06   1.1774964499885667e-05   7.3182872595946124e-06   1.1774722976825289e-05   7.3181200922953450e-06   1.1774485365736056e-05   7.3179522496692534e-06   1.1774249379791458e-05   7.3177821181452138e-06   1.1774012748718876e-05   7.3176080631706468e-06   1.1773773197026291e-05   7.3174284136229784e-06   1.1773528422220396e-05   7.3172414459124030e-06   1.1773276072804824e-05   7.3170453676343408e-06   1.1773013725861072e-05   7.3168383006253555e-06   1.1772738863996788e-05   7.3166182632681141e-06   1.1772448851455302e-05   7.3163831518920319e-06   1.1772140909168402e-05   7.3161307211079705e-06   1.1771812088530658e-05   7.3158585629130362e-06   1.1771459243661204e-05   7.3155640843912179e-06   1.1771079001909635e-05   7.3152444838241584e-06   1.1770667732359979e-05   7.3148967250370110e-06   1.1770221512061636e-05   7.3145175097676074e-06   1.1769736089705531e-05   7.3141032478670733e-06   1.1769206846461810e-05   7.3136500251140922e-06   1.1768628753662733e-05   7.3131535684300410e-06   1.1767996327007514e-05   7.3126092082655495e-06   1.1767303576953402e-05   7.3120118379424352e-06   1.1766543954934805e-05   7.3113558697158469e-06   1.1765710295045922e-05   7.3106351873430871e-06   1.1764794750812554e-05   7.3098430949458899e-06   1.1763788726655066e-05   7.3089722619744901e-06   1.1762682803667768e-05   7.3080146641073572e-06   1.1761466659320322e-05   7.3069615199611575e-06   1.1760128980719557e-05   7.3058032235438679e-06   1.1758657371073200e-05   7.3045292724539110e-06   1.1757038249062422e-05   7.3030662830327067e-06   1.1755256740872728e-05   1.5174985128087377e-05   2.1185704741273847e-05   1.5171570673280796e-05   2.1181015119490715e-05   1.5168476980564772e-05   2.1176751564729622e-05   1.5165673544159169e-05   2.1172887620008628e-05   1.5163132780420394e-05   2.1169385458580249e-05   1.5160829739608661e-05   2.1166210847403180e-05   1.5158741847038768e-05   2.1163332797947014e-05   1.5156848670422310e-05   2.1160723251717963e-05   1.5155131710543962e-05   2.1158356796859036e-05   1.5153574212806410e-05   2.1156210412596579e-05   1.5152160997399706e-05   2.1154263238625658e-05   1.5150878306152506e-05   2.1152496366906887e-05   1.5149713664314888e-05   2.1150892653553260e-05   1.5148655755714515e-05   2.1149436548787750e-05   1.5147694309917935e-05   2.1148113943131794e-05   1.5146820000144063e-05   2.1146912028183675e-05   1.5146024350833098e-05   2.1145819170527206e-05   1.5145299653883370e-05   2.1144824797445660e-05   1.5144638892656852e-05   2.1143919293246392e-05   1.5144035672960058e-05   2.1143093905141581e-05   1.5143484160279018e-05   2.1142340657706079e-05   1.5142979022619300e-05   2.1141652275046306e-05   1.5142515378356877e-05   2.1141022109890964e-05   1.5142088748575053e-05   2.1140444078890642e-05   1.5141695013399428e-05   2.1139912603467380e-05   1.5141330371887417e-05   2.1139422555634653e-05   1.5140991305073924e-05   2.1138969208244585e-05   1.5140674541800358e-05   2.1138548189163584e-05   1.5140377026990626e-05   2.1138155438921235e-05   1.5140095892055033e-05   2.1137787171446547e-05   1.5139828427136347e-05   2.1137439837443327e-05   1.5139572054918032e-05   2.1137110090123403e-05   1.5139324305746874e-05   2.1136794752890423e-05   1.5139082793826074e-05   2.1136490788725164e-05   1.5138845194242967e-05   2.1136195270922718e-05   1.5138609220615349e-05   2.1135905354935278e-05   1.5138372603146220e-05   2.1135618251030564e-05   1.5138133066868862e-05   2.1135331197519158e-05   1.5137888309885218e-05   2.1135041434278233e-05   1.5137635981387131e-05   2.1134746176346166e-05   1.5137373659263825e-05   2.1134442587310721e-05   1.5137098827081388e-05   2.1134127752270993e-05   1.5136808850229311e-05   2.1133798650105307e-05   1.5136500951017527e-05   2.1133452124799309e-05   1.5136172182503953e-05   2.1133084855566695e-05   1.5135819400820485e-05   2.1132693325505217e-05   1.5135439235756650e-05   2.1132273788500803e-05   1.5135028059357761e-05   2.1131822234102556e-05   1.5134581952270229e-05   2.1131334350050940e-05   1.5134096667556615e-05   2.1130805482157047e-05   1.5133567591702116e-05   2.1130230591195294e-05   1.5132989702502710e-05   2.1129604206462274e-05   1.5132357523519606e-05   2.1128920375628505e-05   1.5131665074773887e-05   2.1128172610510085e-05   1.5130905819334985e-05   2.1127353828345634e-05   1.5130072605452530e-05   2.1126456288170537e-05   1.5129157603874835e-05   2.1125471521836338e-05   1.5128152239976881e-05   2.1124390259244059e-05   1.5127047120348851e-05   2.1123202347317539e-05   1.5125831953482085e-05   2.1121896662274723e-05   1.5124495464228748e-05   2.1120461014710434e-05   1.5123025301723162e-05   2.1118882047080276e-05   1.5121407940527715e-05   2.1117145123149969e-05   1.5119559796140670e-05   2.1115234209055325e-05   2.5467722857111996e-05   3.2788807014855209e-05   2.5463020564718168e-05   3.2782824370541027e-05   2.5458759213268238e-05   3.2777393823650016e-05   2.5454897079352944e-05   3.2772471885651028e-05   2.5451396406148982e-05   3.2768010570649345e-05   2.5448223018082701e-05   3.2763966432998310e-05   2.5445345973854083e-05   3.2760300130349411e-05   2.5442737253786085e-05   3.2756976029495204e-05   2.5440371477923899e-05   3.2753961850672667e-05   2.5438225651713287e-05   3.2751228346378683e-05   2.5436278936398436e-05   3.2748749011235195e-05   2.5434512441650942e-05   3.2746499819769694e-05   2.5432909038140524e-05   3.2744458989316454e-05   2.5431453188054718e-05   3.2742606765533812e-05   2.5430130791749408e-05   3.2740925228302490e-05   2.5428929048906939e-05   3.2739398115965026e-05   2.5427836332756977e-05   3.2738010666112576e-05   2.5426842076047045e-05   3.2736749471274233e-05   2.5425936667578194e-05   3.2735602348033259e-05   2.5425111358259224e-05   3.2734558218246640e-05   2.5424358175707290e-05   3.2733607001177071e-05   2.5423669846534293e-05   3.2732739515430552e-05   2.5423039725534325e-05   3.2731947389740675e-05   2.5422461731063030e-05   3.2731222981695088e-05   2.5421930285952997e-05   3.2730559303600233e-05   2.5421440263388273e-05   3.2729949954757487e-05   2.5420986937196692e-05   3.2729389059459350e-05   2.5420565936063241e-05   3.2728871210123028e-05   2.5420173201210546e-05   3.2728391414995619e-05   2.5419804947161885e-05   3.2727945049893946e-05   2.5419457625139516e-05   3.2727527813531339e-05   2.5419127888817898e-05   3.2727135686010835e-05   2.5418812562025382e-05   3.2726764890033586e-05   2.5418508608145911e-05   3.2726411854496902e-05   2.5418213100871753e-05   3.2726073180087686e-05   2.5417923196061651e-05   3.2725745606573914e-05   2.5417636104414934e-05   3.2725425981460063e-05   2.5417349064715535e-05   3.2725111229714291e-05   2.5417059317373971e-05   3.2724798324269112e-05   2.5416764078042578e-05   3.2724484257033569e-05   2.5416460511027375e-05   3.2724166010133700e-05   2.5416145702277766e-05   3.2723840527105014e-05   2.5415816631687281e-05   3.2723504683786819e-05   2.5415470144460824e-05   3.2723155258634377e-05   2.5415102921282536e-05   3.2722788902185470e-05   2.5414711447028559e-05   3.2722402105415970e-05   2.5414291977739815e-05   3.2721991166680686e-05   2.5413840505580254e-05   3.2721552156977869e-05   2.5413352721465976e-05   3.2721080883200054e-05   2.5412823975067142e-05   3.2720572849105186e-05   2.5412249231849704e-05   3.2720023213654630e-05   2.5411623026815378e-05   3.2719426746375836e-05   2.5410939414573745e-05   3.2718777779419992e-05   2.5410191915381813e-05   3.2718070155927692e-05   2.5409373456746952e-05   3.2717297174333818e-05   2.5408476310197607e-05   3.2716451528192165e-05   2.5407492022785161e-05   3.2715525241139130e-05   2.5406411342904173e-05   3.2714509596542528e-05   2.5405224139979836e-05   3.2713395061444743e-05   2.5403919317608154e-05   3.2712171204334327e-05   2.5402484719695959e-05   3.2710826606347075e-05   2.5400907029231092e-05   3.2709348765493490e-05   2.5399171659296924e-05   3.2707723993530326e-05   2.5397188012485535e-05   3.2705937305141433e-05   3.7823922516195731e-05   4.6174024730088930e-05   3.7817932896422439e-05   4.6166800343520954e-05   3.7812504442710269e-05   4.6160248250283921e-05   3.7807584225003586e-05   4.6154309625718564e-05   3.7803124323836650e-05   4.6148926727059139e-05   3.7799081348157921e-05   4.6144047261563109e-05   3.7795416000488390e-05   4.6139623865443043e-05   3.7792092684497067e-05   4.6135613633355017e-05   3.7789079150728364e-05   4.6131977693397408e-05   3.7786346176587857e-05   4.6128680823061755e-05   3.7783867277169373e-05   4.6125691102042818e-05   3.7781618443825837e-05   4.6122979598277878e-05   3.7779577907720422e-05   4.6120520083937958e-05   3.7777725925877685e-05   4.6118288778405249e-05   3.7776044587520815e-05   4.6116264115627172e-05   3.7774517638671891e-05   4.6114426533430394e-05   3.7773130323235180e-05   4.6112758282675374e-05   3.7771869238930212e-05   4.6111243254301176e-05   3.7770722206608494e-05   4.6109866822534550e-05   3.7769678151637836e-05   4.6108615702671559e-05   3.7768726996169978e-05   4.6107477822030705e-05   3.7767859561189647e-05   4.6106442202760780e-05   3.7767067477390774e-05   4.6105498855372124e-05   3.7766343103978616e-05   4.6104638681916169e-05   3.7765679454596985e-05   4.6103853387870260e-05   3.7765070129656031e-05   4.6103135401839388e-05   3.7764509254371203e-05   4.6102477802314735e-05   3.7763991421932544e-05   4.6101874250750025e-05   3.7763511641239613e-05   4.6101318930307183e-05   3.7763065288666662e-05   4.6100806489649364e-05   3.7762648063410799e-05   4.6100331991311865e-05   3.7762255946003936e-05   4.6099890864028868e-05   3.7761885159537775e-05   4.6099478858675728e-05   3.7761532133276902e-05   4.6099092007286162e-05   3.7761193468266398e-05   4.6098726584860242e-05   3.7760865904637161e-05   4.6098379073495648e-05   3.7760546290275363e-05   4.6098046128567849e-05   3.7760231550564365e-05   4.6097724546598638e-05   3.7759918658901387e-05   4.6097411234513716e-05   3.7759604607727682e-05   4.6097103180020452e-05   3.7759286379789507e-05   4.6096797422781155e-05   3.7758960919354578e-05   4.6096491026149293e-05   3.7758625103134667e-05   4.6096181049212081e-05   3.7758275710631409e-05   4.6095864518821411e-05   3.7757909393643374e-05   4.6095538401456168e-05   3.7757522644670182e-05   4.6095199574565897e-05   3.7757111763912291e-05   4.6094844797199138e-05   3.7756672824606754e-05   4.6094470679647800e-05   3.7756201636364515e-05   4.6094073651843857e-05   3.7755693706246431e-05   4.6093649930257617e-05   3.7755144197228946e-05   4.6093195482993420e-05   3.7754547883721699e-05   4.6092705992844323e-05   3.7753899103813769e-05   4.6092176818021845e-05   3.7753191707868610e-05   4.6091602950226432e-05   3.7752419003107791e-05   4.6090978969826497e-05   3.7751573693774999e-05   4.6090298997780257e-05   3.7750647816512486e-05   4.6089556644063266e-05   3.7749632670512138e-05   4.6088744952236220e-05   3.7748518742069528e-05   4.6087856339905041e-05   3.7747295623099232e-05   4.6086882534749523e-05   3.7745951923240224e-05   4.6085814505889618e-05   3.7744475175184210e-05   4.6084642390327945e-05   3.7742851732886218e-05   4.6083355414283181e-05   3.7740987443473045e-05   4.6081941809288145e-05   5.1768742281883050e-05   6.0826971476690572e-05   5.1761515316204816e-05   6.0818604347599132e-05   5.1754965167782068e-05   6.0811019254209695e-05   5.1749028141574251e-05   6.0804144320483186e-05   5.1743646556536062e-05   6.0797912824022602e-05   5.1738768170650392e-05   6.0792264330490083e-05   5.1734345661818866e-05   6.0787144095294683e-05   5.1730336158960159e-05   6.0782502522991144e-05   5.1726700818331806e-05   6.0778294678662649e-05   5.1723404440568383e-05   6.0774479846120938e-05   5.1720415124385306e-05   6.0771021128365291e-05   5.1717703953352559e-05   6.0767885086155215e-05   5.1715244712489607e-05   6.0765041410929236e-05   5.1713013631738924e-05   6.0762462628814887e-05   5.1710989153