<?xml version="1.0"?>
<VTKFile type="UnstructuredGrid"  version="0.1"  >
<UnstructuredGrid>
<Piece  NumberOfPoints="81" NumberOfCells="128">
<Points>
<DataArray  type="Float64"  NumberOfComponents="3"  format="ascii">0 0 0  0.125 0 0  0.25 0 0  0.375 0 0  0.5 0 0  0.625 0 0  0.75 0 0  0.875 0 0  1 0 0  0 0.125 0  0.125 0.125 0  0.25 0.125 0  0.375 0.125 0  0.5 0.125 0  0.625 0.125 0  0.75 0.125 0  0.875 0.125 0  1 0.125 0  0 0.25 0  0.125 0.25 0  0.25 0.25 0  0.375 0.25 0  0.5 0.25 0  0.625 0.25 0  0.75 0.25 0  0.875 0.25 0  1 0.25 0  0 0.375 0  0.125 0.375 0  0.25 0.375 0  0.375 0.375 0  0.5 0.375 0  0.625 0.375 0  0.75 0.375 0  0.875 0.375 0  1 0.375 0  0 0.5 0  0.125 0.5 0  0.25 0.5 0  0.375 0.5 0  0.5 0.5 0  0.625 0.5 0  0.75 0.5 0  0.875 0.5 0  1 0.5 0  0 0.625 0  0.125 0.625 0  0.25 0.625 0  0.375 0.625 0  0.5 0.625 0  0.625 0.625 0  0.75 0.625 0  0.875 0.625 0  1 0.625 0  0 0.75 0  0.125 0.75 0  0.25 0.75 0  0.375 0.75 0  0.5 0.75 0  0.625 0.75 0  0.75 0.75 0  0.875 0.75 0  1 0.75 0  0 0.875 0  0.125 0.875 0  0.25 0.875 0  0.375 0.875 0  0.5 0.875 0  0.625 0.875 0  0.75 0.875 0  0.875 0.875 0  1 0.875 0  0 1 0  0.125 1 0  0.25 1 0  0.375 1 0  0.5 1 0  0.625 1 0  0.75 1 0  0.875 1 0  1 1 0  </DataArray>
</Points>
<Cells>
<DataArray  type="UInt32"  Name="connectivity"  format="ascii">0 1 10  0 9 10  1 2 11  1 10 11  2 3 12  2 11 12  3 4 13  3 12 13  4 5 14  4 13 14  5 6 15  5 14 15  6 7 16  6 15 16  7 8 17  7 16 17  9 10 19  9 18 19  10 11 20  10 19 20  11 12 21  11 20 21  12 13 22  12 21 22  13 14 23  13 22 23  14 15 24  14 23 24  15 16 25  15 24 25  16 17 26  16 25 26  18 19 28  18 27 28  19 20 29  19 28 29  20 21 30  20 29 30  21 22 31  21 30 31  22 23 32  22 31 32  23 24 33  23 32 33  24 25 34  24 33 34  25 26 35  25 34 35  27 28 37  27 36 37  28 29 38  28 37 38  29 30 39  29 38 39  30 31 40  30 39 40  31 32 41  31 40 41  32 33 42  32 41 42  33 34 43  33 42 43  34 35 44  34 43 44  36 37 46  36 45 46  37 38 47  37 46 47  38 39 48  38 47 48  39 40 49  39 48 49  40 41 50  40 49 50  41 42 51  41 50 51  42 43 52  42 51 52  43 44 53  43 52 53  45 46 55  45 54 55  46 47 56  46 55 56  47 48 57  47 56 57  48 49 58  48 57 58  49 50 59  49 58 59  50 51 60  50 59 60  51 52 61  51 60 61  52 53 62  52 61 62  54 55 64  54 63 64  55 56 65  55 64 65  56 57 66  56 65 66  57 58 67  57 66 67  58 59 68  58 67 68  59 60 69  59 68 69  60 61 70  60 69 70  61 62 71  61 70 71  63 64 73  63 72 73  64 65 74  64 73 74  65 66 75  65 74 75  66 67 76  66 75 76  67 68 77  67 76 77  68 69 78  68 77 78  69 70 79  69 78 79  70 71 80  70 79 80  </DataArray>
<DataArray  type="UInt32"  Name="offsets"  format="ascii">3 6 9 12 15 18 21 24 27 30 33 36 39 42 45 48 51 54 57 60 63 66 69 72 75 78 81 84 87 90 93 96 99 102 105 108 111 114 117 120 123 126 129 132 135 138 141 144 147 150 153 156 159 162 165 168 171 174 177 180 183 186 189 192 195 198 201 204 207 210 213 216 219 222 225 228 231 234 237 240 243 246 249 252 255 258 261 264 267 270 273 276 279 282 285 288 291 294 297 300 303 306 309 312 315 318 321 324 327 330 333 336 339 342 345 348 351 354 357 360 363 366 369 372 375 378 381 384 </DataArray>
<DataArray  type="UInt8"  Name="types"  format="ascii">5 5 5 5 5 5 5 5 5 5 5 5 5 5 5 5 5 5 5 5 5 5 5 5 5 5 5 5 5 5 5 5 5 5 5 5 5 5 5 5 5 5 5 5 5 5 5 5 5 5 5 5 5 5 5 5 5 5 5 5 5 5 5 5 5 5 5 5 5 5 5 5 5 5 5 5 5 5 5 5 5 5 5 5 5 5 5 5 5 5 5 5 5 5 5 5 5 5 5 5 5 5 5 5 5 5 5 5 5 5 5 5 5 5 5 5 5 5 5 5 5 5 5 5 5 5 5 5 </DataArray>
</Cells>
<CellData  Scalars="f_983"> 
<DataArray  type="Float64"  Name="f_983"  format="ascii">3.2436758046708591e-02   2.2162623889171140e-01   3.1864413070678582e-02   2.1244362876842474e-01   3.1736881606491005e-02   2.0828295316090750e-01   3.1711576965786706e-02   2.0640319377318975e-01   3.1720523507305462e-02   2.0558516932693366e-01   3.1787754249492595e-02   2.0533941436991948e-01   3.2093870563692305e-02   2.0559184781593726e-01   3.2385130922020139e-02   2.0682809216865500e-01   3.7419707263979690e-01   5.4813359142873641e-01   3.6538185412054308e-01   5.3903613029406183e-01   3.6135717074119161e-01   5.3494522877973782e-01   3.5950816045627904e-01   5.3338015882519441e-01   3.5869824304099673e-01   5.3338099833573938e-01   3.5845973089152827e-01   5.3495000248141467e-01   3.5873799921401728e-01   5.3905766174111358e-01   3.5913164197526382e-01   5.4834924824552433e-01   5.4834924824552467e-01   3.5913164197526426e-01   5.3905766174111391e-01   3.5873799921401783e-01   5.3495000248141478e-01   3.5845973089152883e-01   5.3338099833573949e-01   3.5869824304099729e-01   5.3338015882519452e-01   3.5950816045627965e-01   5.3494522877973782e-01   3.6135717074119228e-01   5.3903613029406172e-01   3.6538185412054397e-01   5.4813359142873630e-01   3.7419707263979762e-01   2.0682809216865547e-01   3.2624289438239445e-02   2.0559184781593778e-01   3.2145497688380785e-02   2.0533941436992004e-01   3.1797455272698318e-02   2.0558516932693427e-01   3.1721277988992463e-02   2.0640319377319039e-01   3.1712331447473714e-02   2.0828295316090820e-01   3.1746582629696790e-02   2.1244362876842565e-01   3.1916040195367222e-02   2.2162623889171226e-01   3.2675916562928134e-02   3.2675916562927981e-02   2.2162623889171140e-01   3.1916040195367125e-02   2.1244362876842471e-01   3.1746582629696742e-02   2.0828295316090750e-01   3.1712331447473693e-02   2.0640319377318983e-01   3.1721277988992450e-02   2.0558516932693366e-01   3.1797455272698331e-02   2.0533941436991948e-01   3.2145497688380861e-02   2.0559184781593726e-01   3.2624289438239557e-02   2.0682809216865503e-01   3.7419707263979690e-01   5.4813359142873619e-01   3.6538185412054308e-01   5.3903613029406183e-01   3.6135717074119161e-01   5.3494522877973805e-01   3.5950816045627909e-01   5.3338015882519452e-01   3.5869824304099673e-01   5.3338099833573960e-01   3.5845973089152822e-01   5.3495000248141478e-01   3.5873799921401728e-01   5.3905766174111380e-01   3.5913164197526382e-01   5.4834924824552445e-01   5.4834924824552445e-01   3.5913164197526448e-01   5.3905766174111402e-01   3.5873799921401794e-01   5.3495000248141500e-01   3.5845973089152877e-01   5.3338099833573949e-01   3.5869824304099723e-01   5.3338015882519474e-01   3.5950816045627970e-01   5.3494522877973794e-01   3.6135717074119234e-01   5.3903613029406205e-01   3.6538185412054391e-01   5.4813359142873641e-01   3.7419707263979773e-01   2.0682809216865561e-01   3.2385130922020076e-02   2.0559184781593792e-01   3.2093870563692256e-02   2.0533941436992001e-01   3.1787754249492595e-02   2.0558516932693421e-01   3.1720523507305490e-02   2.0640319377319044e-01   3.1711576965786741e-02   2.0828295316090822e-01   3.1736881606491060e-02   2.1244362876842562e-01   3.1864413070678665e-02   2.2162623889171232e-01   3.2436758046708730e-02   </DataArray> 
</CellData> 
</Piece>
</UnstructuredGrid>
</VTKFile>