<?xml version="1.0"?>
<VTKFile type="UnstructuredGrid"  version="0.1"  >
<UnstructuredGrid>
<Piece  NumberOfPoints="1089" NumberOfCells="2048">
<Points>
<DataArray  type="Float64"  NumberOfComponents="3"  format="ascii">0 0 0  0.03125 0 0  0.0625 0 0  0.09375 0 0  0.125 0 0  0.15625 0 0  0.1875 0 0  0.21875 0 0  0.25 0 0  0.28125 0 0  0.3125 0 0  0.34375 0 0  0.375 0 0  0.40625 0 0  0.4375 0 0  0.46875 0 0  0.5 0 0  0.53125 0 0  0.5625 0 0  0.59375 0 0  0.625 0 0  0.65625 0 0  0.6875 0 0  0.71875 0 0  0.75 0 0  0.78125 0 0  0.8125 0 0  0.84375 0 0  0.875 0 0  0.90625 0 0  0.9375 0 0  0.96875 0 0  1 0 0  0 0.03125 0  0.03125 0.03125 0  0.0625 0.03125 0  0.09375 0.03125 0  0.125 0.03125 0  0.15625 0.03125 0  0.1875 0.03125 0  0.21875 0.03125 0  0.25 0.03125 0  0.28125 0.03125 0  0.3125 0.03125 0  0.34375 0.03125 0  0.375 0.03125 0  0.40625 0.03125 0  0.4375 0.03125 0  0.46875 0.03125 0  0.5 0.03125 0  0.53125 0.03125 0  0.5625 0.03125 0  0.59375 0.03125 0  0.625 0.03125 0  0.65625 0.03125 0  0.6875 0.03125 0  0.71875 0.03125 0  0.75 0.03125 0  0.78125 0.03125 0  0.8125 0.03125 0  0.84375 0.03125 0  0.875 0.03125 0  0.90625 0.03125 0  0.9375 0.03125 0  0.96875 0.03125 0  1 0.03125 0  0 0.0625 0  0.03125 0.0625 0  0.0625 0.0625 0  0.09375 0.0625 0  0.125 0.0625 0  0.15625 0.0625 0  0.1875 0.0625 0  0.21875 0.0625 0  0.25 0.0625 0  0.28125 0.0625 0  0.3125 0.0625 0  0.34375 0.0625 0  0.375 0.0625 0  0.40625 0.0625 0  0.4375 0.0625 0  0.46875 0.0625 0  0.5 0.0625 0  0.53125 0.0625 0  0.5625 0.0625 0  0.59375 0.0625 0  0.625 0.0625 0  0.65625 0.0625 0  0.6875 0.0625 0  0.71875 0.0625 0  0.75 0.0625 0  0.78125 0.0625 0  0.8125 0.0625 0  0.84375 0.0625 0  0.875 0.0625 0  0.90625 0.0625 0  0.9375 0.0625 0  0.96875 0.0625 0  1 0.0625 0  0 0.09375 0  0.03125 0.09375 0  0.0625 0.09375 0  0.09375 0.09375 0  0.125 0.09375 0  0.15625 0.09375 0  0.1875 0.09375 0  0.21875 0.09375 0  0.25 0.09375 0  0.28125 0.09375 0  0.3125 0.09375 0  0.34375 0.09375 0  0.375 0.09375 0  0.40625 0.09375 0  0.4375 0.09375 0  0.46875 0.09375 0  0.5 0.09375 0  0.53125 0.09375 0  0.5625 0.09375 0  0.59375 0.09375 0  0.625 0.09375 0  0.65625 0.09375 0  0.6875 0.09375 0  0.71875 0.09375 0  0.75 0.09375 0  0.78125 0.09375 0  0.8125 0.09375 0  0.84375 0.09375 0  0.875 0.09375 0  0.90625 0.09375 0  0.9375 0.09375 0  0.96875 0.09375 0  1 0.09375 0  0 0.125 0  0.03125 0.125 0  0.0625 0.125 0  0.09375 0.125 0  0.125 0.125 0  0.15625 0.125 0  0.1875 0.125 0  0.21875 0.125 0  0.25 0.125 0  0.28125 0.125 0  0.3125 0.125 0  0.34375 0.125 0  0.375 0.125 0  0.40625 0.125 0  0.4375 0.125 0  0.46875 0.125 0  0.5 0.125 0  0.53125 0.125 0  0.5625 0.125 0  0.59375 0.125 0  0.625 0.125 0  0.65625 0.125 0  0.6875 0.125 0  0.71875 0.125 0  0.75 0.125 0  0.78125 0.125 0  0.8125 0.125 0  0.84375 0.125 0  0.875 0.125 0  0.90625 0.125 0  0.9375 0.125 0  0.96875 0.125 0  1 0.125 0  0 0.15625 0  0.03125 0.15625 0  0.0625 0.15625 0  0.09375 0.15625 0  0.125 0.15625 0  0.15625 0.15625 0  0.1875 0.15625 0  0.21875 0.15625 0  0.25 0.15625 0  0.28125 0.15625 0  0.3125 0.15625 0  0.34375 0.15625 0  0.375 0.15625 0  0.40625 0.15625 0  0.4375 0.15625 0  0.46875 0.15625 0  0.5 0.15625 0  0.53125 0.15625 0  0.5625 0.15625 0  0.59375 0.15625 0  0.625 0.15625 0  0.65625 0.15625 0  0.6875 0.15625 0  0.71875 0.15625 0  0.75 0.15625 0  0.78125 0.15625 0  0.8125 0.15625 0  0.84375 0.15625 0  0.875 0.15625 0  0.90625 0.15625 0  0.9375 0.15625 0  0.96875 0.15625 0  1 0.15625 0  0 0.1875 0  0.03125 0.1875 0  0.0625 0.1875 0  0.09375 0.1875 0  0.125 0.1875 0  0.15625 0.1875 0  0.1875 0.1875 0  0.21875 0.1875 0  0.25 0.1875 0  0.28125 0.1875 0  0.3125 0.1875 0  0.34375 0.1875 0  0.375 0.1875 0  0.40625 0.1875 0  0.4375 0.1875 0  0.46875 0.1875 0  0.5 0.1875 0  0.53125 0.1875 0  0.5625 0.1875 0  0.59375 0.1875 0  0.625 0.1875 0  0.65625 0.1875 0  0.6875 0.1875 0  0.71875 0.1875 0  0.75 0.1875 0  0.78125 0.1875 0  0.8125 0.1875 0  0.84375 0.1875 0  0.875 0.1875 0  0.90625 0.1875 0  0.9375 0.1875 0  0.96875 0.1875 0  1 0.1875 0  0 0.21875 0  0.03125 0.21875 0  0.0625 0.21875 0  0.09375 0.21875 0  0.125 0.21875 0  0.15625 0.21875 0  0.1875 0.21875 0  0.21875 0.21875 0  0.25 0.21875 0  0.28125 0.21875 0  0.3125 0.21875 0  0.34375 0.21875 0  0.375 0.21875 0  0.40625 0.21875 0  0.4375 0.21875 0  0.46875 0.21875 0  0.5 0.21875 0  0.53125 0.21875 0  0.5625 0.21875 0  0.59375 0.21875 0  0.625 0.21875 0  0.65625 0.21875 0  0.6875 0.21875 0  0.71875 0.21875 0  0.75 0.21875 0  0.78125 0.21875 0  0.8125 0.21875 0  0.84375 0.21875 0  0.875 0.21875 0  0.90625 0.21875 0  0.9375 0.21875 0  0.96875 0.21875 0  1 0.21875 0  0 0.25 0  0.03125 0.25 0  0.0625 0.25 0  0.09375 0.25 0  0.125 0.25 0  0.15625 0.25 0  0.1875 0.25 0  0.21875 0.25 0  0.25 0.25 0  0.28125 0.25 0  0.3125 0.25 0  0.34375 0.25 0  0.375 0.25 0  0.40625 0.25 0  0.4375 0.25 0  0.46875 0.25 0  0.5 0.25 0  0.53125 0.25 0  0.5625 0.25 0  0.59375 0.25 0  0.625 0.25 0  0.65625 0.25 0  0.6875 0.25 0  0.71875 0.25 0  0.75 0.25 0  0.78125 0.25 0  0.8125 0.25 0  0.84375 0.25 0  0.875 0.25 0  0.90625 0.25 0  0.9375 0.25 0  0.96875 0.25 0  1 0.25 0  0 0.28125 0  0.03125 0.28125 0  0.0625 0.28125 0  0.09375 0.28125 0  0.125 0.28125 0  0.15625 0.28125 0  0.1875 0.28125 0  0.21875 0.28125 0  0.25 0.28125 0  0.28125 0.28125 0  0.3125 0.28125 0  0.34375 0.28125 0  0.375 0.28125 0  0.40625 0.28125 0  0.4375 0.28125 0  0.46875 0.28125 0  0.5 0.28125 0  0.53125 0.28125 0  0.5625 0.28125 0  0.59375 0.28125 0  0.625 0.28125 0  0.65625 0.28125 0  0.6875 0.28125 0  0.71875 0.28125 0  0.75 0.28125 0  0.78125 0.28125 0  0.8125 0.28125 0  0.84375 0.28125 0  0.875 0.28125 0  0.90625 0.28125 0  0.9375 0.28125 0  0.96875 0.28125 0  1 0.28125 0  0 0.3125 0  0.03125 0.3125 0  0.0625 0.3125 0  0.09375 0.3125 0  0.125 0.3125 0  0.15625 0.3125 0  0.1875 0.3125 0  0.21875 0.3125 0  0.25 0.3125 0  0.28125 0.3125 0  0.3125 0.3125 0  0.34375 0.3125 0  0.375 0.3125 0  0.40625 0.3125 0  0.4375 0.3125 0  0.46875 0.3125 0  0.5 0.3125 0  0.53125 0.3125 0  0.5625 0.3125 0  0.59375 0.3125 0  0.625 0.3125 0  0.65625 0.3125 0  0.6875 0.3125 0  0.71875 0.3125 0  0.75 0.3125 0  0.78125 0.3125 0  0.8125 0.3125 0  0.84375 0.3125 0  0.875 0.3125 0  0.90625 0.3125 0  0.9375 0.3125 0  0.96875 0.3125 0  1 0.3125 0  0 0.34375 0  0.03125 0.34375 0  0.0625 0.34375 0  0.09375 0.34375 0  0.125 0.34375 0  0.15625 0.34375 0  0.1875 0.34375 0  0.21875 0.34375 0  0.25 0.34375 0  0.28125 0.34375 0  0.3125 0.34375 0  0.34375 0.34375 0  0.375 0.34375 0  0.40625 0.34375 0  0.4375 0.34375 0  0.46875 0.34375 0  0.5 0.34375 0  0.53125 0.34375 0  0.5625 0.34375 0  0.59375 0.34375 0  0.625 0.34375 0  0.65625 0.34375 0  0.6875 0.34375 0  0.71875 0.34375 0  0.75 0.34375 0  0.78125 0.34375 0  0.8125 0.34375 0  0.84375 0.34375 0  0.875 0.34375 0  0.90625 0.34375 0  0.9375 0.34375 0  0.96875 0.34375 0  1 0.34375 0  0 0.375 0  0.03125 0.375 0  0.0625 0.375 0  0.09375 0.375 0  0.125 0.375 0  0.15625 0.375 0  0.1875 0.375 0  0.21875 0.375 0  0.25 0.375 0  0.28125 0.375 0  0.3125 0.375 0  0.34375 0.375 0  0.375 0.375 0  0.40625 0.375 0  0.4375 0.375 0  0.46875 0.375 0  0.5 0.375 0  0.53125 0.375 0  0.5625 0.375 0  0.59375 0.375 0  0.625 0.375 0  0.65625 0.375 0  0.6875 0.375 0  0.71875 0.375 0  0.75 0.375 0  0.78125 0.375 0  0.8125 0.375 0  0.84375 0.375 0  0.875 0.375 0  0.90625 0.375 0  0.9375 0.375 0  0.96875 0.375 0  1 0.375 0  0 0.40625 0  0.03125 0.40625 0  0.0625 0.40625 0  0.09375 0.40625 0  0.125 0.40625 0  0.15625 0.40625 0  0.1875 0.40625 0  0.21875 0.40625 0  0.25 0.40625 0  0.28125 0.40625 0  0.3125 0.40625 0  0.34375 0.40625 0  0.375 0.40625 0  0.40625 0.40625 0  0.4375 0.40625 0  0.46875 0.40625 0  0.5 0.40625 0  0.53125 0.40625 0  0.5625 0.40625 0  0.59375 0.40625 0  0.625 0.40625 0  0.65625 0.40625 0  0.6875 0.40625 0  0.71875 0.40625 0  0.75 0.40625 0  0.78125 0.40625 0  0.8125 0.40625 0  0.84375 0.40625 0  0.875 0.40625 0  0.90625 0.40625 0  0.9375 0.40625 0  0.96875 0.40625 0  1 0.40625 0  0 0.4375 0  0.03125 0.4375 0  0.0625 0.4375 0  0.09375 0.4375 0  0.125 0.4375 0  0.15625 0.4375 0  0.1875 0.4375 0  0.21875 0.4375 0  0.25 0.4375 0  0.28125 0.4375 0  0.3125 0.4375 0  0.34375 0.4375 0  0.375 0.4375 0  0.40625 0.4375 0  0.4375 0.4375 0  0.46875 0.4375 0  0.5 0.4375 0  0.53125 0.4375 0  0.5625 0.4375 0  0.59375 0.4375 0  0.625 0.4375 0  0.65625 0.4375 0  0.6875 0.4375 0  0.71875 0.4375 0  0.75 0.4375 0  0.78125 0.4375 0  0.8125 0.4375 0  0.84375 0.4375 0  0.875 0.4375 0  0.90625 0.4375 0  0.9375 0.4375 0  0.96875 0.4375 0  1 0.4375 0  0 0.46875 0  0.03125 0.46875 0  0.0625 0.46875 0  0.09375 0.46875 0  0.125 0.46875 0  0.15625 0.46875 0  0.1875 0.46875 0  0.21875 0.46875 0  0.25 0.46875 0  0.28125 0.46875 0  0.3125 0.46875 0  0.34375 0.46875 0  0.375 0.46875 0  0.40625 0.46875 0  0.4375 0.46875 0  0.46875 0.46875 0  0.5 0.46875 0  0.53125 0.46875 0  0.5625 0.46875 0  0.59375 0.46875 0  0.625 0.46875 0  0.65625 0.46875 0  0.6875 0.46875 0  0.71875 0.46875 0  0.75 0.46875 0  0.78125 0.46875 0  0.8125 0.46875 0  0.84375 0.46875 0  0.875 0.46875 0  0.90625 0.46875 0  0.9375 0.46875 0  0.96875 0.46875 0  1 0.46875 0  0 0.5 0  0.03125 0.5 0  0.0625 0.5 0  0.09375 0.5 0  0.125 0.5 0  0.15625 0.5 0  0.1875 0.5 0  0.21875 0.5 0  0.25 0.5 0  0.28125 0.5 0  0.3125 0.5 0  0.34375 0.5 0  0.375 0.5 0  0.40625 0.5 0  0.4375 0.5 0  0.46875 0.5 0  0.5 0.5 0  0.53125 0.5 0  0.5625 0.5 0  0.59375 0.5 0  0.625 0.5 0  0.65625 0.5 0  0.6875 0.5 0  0.71875 0.5 0  0.75 0.5 0  0.78125 0.5 0  0.8125 0.5 0  0.84375 0.5 0  0.875 0.5 0  0.90625 0.5 0  0.9375 0.5 0  0.96875 0.5 0  1 0.5 0  0 0.53125 0  0.03125 0.53125 0  0.0625 0.53125 0  0.09375 0.53125 0  0.125 0.53125 0  0.15625 0.53125 0  0.1875 0.53125 0  0.21875 0.53125 0  0.25 0.53125 0  0.28125 0.53125 0  0.3125 0.53125 0  0.34375 0.53125 0  0.375 0.53125 0  0.40625 0.53125 0  0.4375 0.53125 0  0.46875 0.53125 0  0.5 0.53125 0  0.53125 0.53125 0  0.5625 0.53125 0  0.59375 0.53125 0  0.625 0.53125 0  0.65625 0.53125 0  0.6875 0.53125 0  0.71875 0.53125 0  0.75 0.53125 0  0.78125 0.531
[...]
<CellData  Scalars="f_1099"> 
<DataArray  type="Float64"  Name="f_1099"  format="ascii">9.4588100298365262e-06   6.9191974944832665e-05   9.4489221100605157e-06   6.8939891842460964e-05   9.4422371601185060e-06   6.8727459253224298e-05   9.4377177120215224e-06   6.8554022043087619e-05   9.4346623719267570e-06   6.8412129741707579e-05   9.4325969676157978e-06   6.8295798550981236e-05   9.4312009595370631e-06   6.8200198989459219e-05   9.4302576948050745e-06   6.8121414592690589e-05   9.4296207838472506e-06   6.8056253751314815e-05   9.4291913815359349e-06   6.8002101612171385e-05   9.4289028469603676e-06   6.7956802401829129e-05   9.4287104011186955e-06   6.7918564982636002e-05   9.4285841774596190e-06   6.7885886211774895e-05   9.4285045867555643e-06   6.7857487946239618e-05   9.4284592769607553e-06   6.7832264461159999e-05   9.4284412162406808e-06   6.7809237723325617e-05   9.4284476016695029e-06   6.7787518454353403e-05   9.4284794242311548e-06   6.7766271277435602e-05   9.4285416226146783e-06   6.7744682502924192e-05   9.4286438496719961e-06   6.7721929297501524e-05   9.4288019704881853e-06   6.7697149120216418e-05   9.4290405245566742e-06   6.7669408414878054e-05   9.4293965341755910e-06   6.7637669641141789e-05   9.4299252501077121e-06   6.7600755828468514e-05   9.4307087261993076e-06   6.7557311977702966e-05   9.4318685536922199e-06   6.7505762856167543e-05   9.4335847315254412e-06   6.7444267095669272e-05   9.4361236011945352e-06   6.7370668100454327e-05   9.4398791815078511e-06   6.7282443241679997e-05   9.4454343181694197e-06   6.7176654363285354e-05   9.4536511382723145e-06   6.7049905061050452e-05   9.4529613093450525e-06   6.6898313986328198e-05   1.4246081659057775e-04   3.1025287464694277e-04   1.4220242655307264e-04   3.0970735995462296e-04   1.4199159174139834e-04   3.0925663588650626e-04   1.4181923477595801e-04   3.0888709803971625e-04   1.4167807283452862e-04   3.0858380929206150e-04   1.4156223546691216e-04   3.0833461685807130e-04   1.4146696983032849e-04   3.0812960804425267e-04   1.4138841128366679e-04   3.0796067710735947e-04   1.4132340326827885e-04   3.0782117846870412e-04   1.4126935464876873e-04   3.0770564748146506e-04   1.4122412571739127e-04   3.0760957431939762e-04   1.4118593624340867e-04   3.0752921979762771e-04   1.4115329052484060e-04   3.0746146436091233e-04   1.4112491554821752e-04   3.0740368330042583e-04   1.4109970920298223e-04   3.0735364264330176e-04   1.4107669611593515e-04   3.0730941121040830e-04   1.4105498912722145e-04   3.0726928513818567e-04   1.4103375476586294e-04   3.0723172176781678e-04   1.4101218133111683e-04   3.0719528026294319e-04   1.4098944837031402e-04   3.0715856665862484e-04   1.4096469648435843e-04   3.0712018129483779e-04   1.4093699650772032e-04   3.0707866677011548e-04   1.4090531722092843e-04   3.0703245468550740e-04   1.4086849088549498e-04   3.0697980955915238e-04   1.4082517607825801e-04   3.0691876840608002e-04   1.4077381759339600e-04   3.0684707463483522e-04   1.4071260364849415e-04   3.0676210516909763e-04   1.4063942138405137e-04   3.0666079014167404e-04   1.4055181284558152e-04   3.0653952525581095e-04   1.4044693552659357e-04   3.0639407815372430e-04   1.4032153449194544e-04   3.0621949215917511e-04   1.4015524770572018e-04   3.0600999399832965e-04   4.4563129316112584e-04   6.9594499387049457e-04   4.4508324500536163e-04   6.9510723973769761e-04   4.4463405689323195e-04   6.9441851866176418e-04   4.4426555749097673e-04   6.9385322653810080e-04   4.4396297083736694e-04   6.9338898091668758e-04   4.4371425310812067e-04   6.9300749585601796e-04   4.4350956528134812e-04   6.9269381010536081e-04   4.4334085142925232e-04   6.9243566543970175e-04   4.4320149966352936e-04   6.9222300400747713e-04   4.4308606813124043e-04   6.9204756047426248e-04   4.4299006244101008e-04   6.9190252997693548e-04   4.4290975387922739e-04   6.9178229689104555e-04   4.4284203002339039e-04   6.9168221247886599e-04   4.4278427106585433e-04   6.9159841185711111e-04   4.4273424646401106e-04   6.9152766257024058e-04   4.4269002753042112e-04   6.9146723849966790e-04   4.4264991234134888e-04   6.9141481397341537e-04   4.4261235992698334e-04   6.9136837383175487e-04   4.4257593115127822e-04   6.9132613590587859e-04   4.4253923402479150e-04   6.9128648291808914e-04   4.4250087144476934e-04   6.9124790124674626e-04   4.4245938954566203e-04   6.9120892434477109e-04   4.4241322499183745e-04   6.9116807888353147e-04   4.4236064967795454e-04   6.9112383194090687e-04   4.4229971145355997e-04   6.9107453779472712e-04   4.4222816970117149e-04   6.9101838316198278e-04   4.4214342493697107e-04   6.9095333009599200e-04   4.4204244216622580e-04   6.9087705629944807e-04   4.4192166865661739e-04   6.9078689345105954e-04   4.4177694830929248e-04   6.9067976545445224e-04   4.4160343723641130e-04   6.9055213056693615e-04   4.4137590517453990e-04   6.9039993454876169e-04   8.7282395314279690e-04   1.1675502037714895e-03   8.7198636719950534e-04   1.1664658931533414e-03   8.7129900194078105e-04   1.1655757024276539e-03   8.7073462646889376e-04   1.1648448042010169e-03   8.7027100059320934e-04   1.1642445455032958e-03   8.6988993455339853e-04   1.1637514767857083e-03   8.6957653212849562e-04   1.1633463914921534e-03   8.6931857906410775e-04   1.1630135478905602e-03   8.6910604724414915e-04   1.1627400370405896e-03   8.6893069144931714e-04   1.1625152684055344e-03   8.6878572043300997e-04   1.1623305504998918e-03   8.6866552780190929e-04   1.1621787485382069e-03   8.6856547109665232e-04   1.1620540046344101e-03   8.6848168973391749e-04   1.1619515089274215e-03   8.6841095424705986e-04   1.1618673122542294e-03   8.6835054065918045e-04   1.1617981727856772e-03   8.6829812492515831e-04   1.1617414304827818e-03   8.6825169324977205e-04   1.1616949043999512e-03   8.6820946477813362e-04   1.1616568088149521e-03   8.6816982369979231e-04   1.1616256849536061e-03   8.6813125824138928e-04   1.1616003457397095e-03   8.6809230437200633e-04   1.1615798315725277e-03   8.6805149233754465e-04   1.1615633756491377e-03   8.6800729440353851e-04   1.1615503778403323e-03   8.6795807245368937e-04   1.1615403866349610e-03   8.6790202440946733e-04   1.1615330892359747e-03   8.6783712886615092e-04   1.1615283105833726e-03   8.6776108797309852e-04   1.1615260229803871e-03   8.6767126955437815e-04   1.1615263692307705e-03   8.6756465096723284e-04   1.1615297039323669e-03   8.6743776952655910e-04   1.1615366600707916e-03   8.6726548940020676e-04   1.1615482516923153e-03   1.3590025865645077e-03   1.6532708862543248e-03   1.3579196626679051e-03   1.6520232380958025e-03   1.3570305567279423e-03   1.6509987770062830e-03   1.3563003919095681e-03   1.6501576328785354e-03   1.3557006290636346e-03   1.6494670116599050e-03   1.3552078955948671e-03   1.6489000558554078e-03   1.3548030369759660e-03   1.6484347631647485e-03   1.3544703466535368e-03   1.6480531076558829e-03   1.3541969394753356e-03   1.6477403245362208e-03   1.3539722409939515e-03   1.6474843275431166e-03   1.3537875706113522e-03   1.6472752342042878e-03   1.3536358009174001e-03   1.6471049791303189e-03   1.3535110790338033e-03   1.6469669994028120e-03   1.3534085985168985e-03   1.6468559792438655e-03   1.3533244125610913e-03   1.6467676436704849e-03   1.3532552810005061e-03   1.6466985928839538e-03   1.3531985450234325e-03   1.6466461708241010e-03   1.3531520246660130e-03   1.6466083627139846e-03   1.3531139350945662e-03   1.6465837175979306e-03   1.3530828184681839e-03   1.6465712928907669e-03   1.3530574888334904e-03   1.6465706188552025e-03   1.3530369880763917e-03   1.6465816817508596e-03   1.3530205514751363e-03   1.6466049251937561e-03   1.3530075818992079e-03   1.6466412700714840e-03   1.3529976322190450e-03   1.6466921542243622e-03   1.3529903960820865e-03   1.6467595940834240e-03   1.3529857079358650e-03   1.6468462716248446e-03   1.3529835541297138e-03   1.6469556514508324e-03   1.3529840982319280e-03   1.6470921346714287e-03   1.3529877255458826e-03   1.6472612587195127e-03   1.3529951144690456e-03   1.6474699555391933e-03   1.3529861718830645e-03   1.6477268851140293e-03   1.8301509037080383e-03   2.0791604704800074e-03   1.8289041921717348e-03   2.0778575703859952e-03   1.8278804952058358e-03   2.0767864796642490e-03   1.8270398676892476e-03   2.0759072337763152e-03   1.8263495957445671e-03   2.0751856574667831e-03   1.8257828760822332e-03   2.0745937597846020e-03   1.8253177430499340e-03   2.0741086178730685e-03   1.8249361954937376e-03   2.0737114686560391e-03   1.8246234853747229e-03   2.0733869692618301e-03   1.8243675377595484e-03   2.0731225948888627e-03   1.8241584778391192e-03   2.0729081490306138e-03   1.8239882454103738e-03   2.0727353659269268e-03   1.8238502810693307e-03   2.0725975890778176e-03   1.8237392714259835e-03   2.0724895128707232e-03   1.8236509431293021e-03   2.0724069769932803e-03   1.8235818975098743e-03   2.0723468054677590e-03   1.8235294793094356e-03   2.0723066839528721e-03   1.8234916743500034e-03   2.0722850704970428e-03   1.8234670321648737e-03   2.0722811362660068e-03   1.8234546106237375e-03   2.0722947339640264e-03   1.8234539404806539e-03   2.0723263927778842e-03   1.8234650085993376e-03   2.0723773397428617e-03   1.8234882594063920e-03   2.0724495485118554e-03   1.8235246149322854e-03   2.0725458176521269e-03   1.8235755146698753e-03   2.0726698818592354e-03   1.8236429774688575e-03   2.0728265609305917e-03   1.8237296888655582e-03   2.0730219530701297e-03   1.8238391187163424e-03   2.0732636812066589e-03   1.8239756758948276e-03   2.0735612036493411e-03   1.8241449093117572e-03   2.0739262037670712e-03   1.8243537678846913e-03   2.0743730777333163e-03   1.8245913817840627e-03   2.0749195450956862e-03   2.2145408442584866e-03   2.3803811279488208e-03   2.2132368305795408e-03   2.3791394731304421e-03   2.2121661825065895e-03   2.3781164924469248e-03   2.2112872358845152e-03   2.3772770895873312e-03   2.2105658619023462e-03   2.3765886782489438e-03   2.2099741010091420e-03   2.3760245810730734e-03   2.2094890515771057e-03   2.3755629699808278e-03   2.2090919648824116e-03   2.3751860040313218e-03   2.2087675077565030e-03   2.3748791280542901e-03   2.2085031619576111e-03   2.3746305026597671e-03   2.2082887354137569e-03   2.3744305420685518e-03   2.2081159653622702e-03   2.3742715408873400e-03   2.2079781973287998e-03   2.3741473747322791e-03   2.2078701270689207e-03   2.3740532626908640e-03   2.2077875951932472e-03   2.3739855821543849e-03   2.2077274263451003e-03   2.3739417286818684e-03   2.2076873065987072e-03   2.3739200153673340e-03   2.2076656942769512e-03   2.3739196077580743e-03   2.2076617607215726e-03   2.3739404917836452e-03   2.2076753587416888e-03   2.3739834734625761e-03   2.2077070175740717e-03   2.3740502104137142e-03   2.2077579642568782e-03   2.3741432764664812e-03   2.2078301723992117e-03   2.3742662619943124e-03   2.2079264404710817e-03   2.3744239140473687e-03   2.2080505030022358e-03   2.3746223220048207e-03   2.2082071795299862e-03   2.3748691563816064e-03   2.2084025678635127e-03   2.3751739707113303e-03   2.2086442903409519e-03   2.3755485792094867e-03   2.2089418043932073e-03   2.3760075263643586e-03   2.2093067920870243e-03   2.3765686689188980e-03   2.2097536476677459e-03   2.3772538961856276e-03   2.2102835010076004e-03   2.3780900216662541e-03   2.4536525242704822e-03   2.5110747441332232e-03   2.4524064176776467e-03   2.5100015077636310e-03   2.4513836062970053e-03   2.5091140524716102e-03   2.4505443178986265e-03   2.5083863716890030e-03   2.4498559839435524e-03   2.5077901963175813e-03   2.4492919390825645e-03   2.5073024096569120e-03   2.4488303633557573e-03   2.5069041270701971e-03   2.4484534213107694e-03   2.5065799486443875e-03   2.4481465614871875e-03   2.5063173527707164e-03   2.4478979470019726e-03   2.5061062050737168e-03   2.4476979937689903e-03   2.5059383622853728e-03   2.4475389975368942e-03   2.5058073548060514e-03   2.4474148346899077e-03   2.5057081350559735e-03   2.4473207248289198e-03   2.5056368814764434e-03   2.4472530456836131e-03   2.5055908503349112e-03   2.4472091930289146e-03   2.5055682694317622e-03   2.4471874800857658e-03   2.5055682694913690e-03   2.4471870724590964e-03   2.5055908505229943e-03   2.4472079560757596e-03   2.5056368818221477e-03   2.4472509368908260e-03   2.5057081356129893e-03   2.4473176723890750e-03   2.5058073556608329e-03   2.4474107361744470e-03   2.5059383635705652e-03   2.4475337182684907e-03   2.5061062069887813e-03   2.4476913651884620e-03   2.5063173556128292e-03   2.4478897655169046e-03   2.5065799528546625e-03   2.4481365885847743e-03   2.5069041333020230e-03   2.4484413861705946e-03   2.5073024188774461e-03   2.4488159698912962e-03   2.5077902099578126e-03   2.4492748803898357e-03   2.5083863918658770e-03   2.4498359687202998e-03   2.5091140823164269e-03   2.4505211157799297e-03   2.5100015519081580e-03   2.4513444007097304e-03   2.5110833580150125e-03   2.5110833580150003e-03   2.4513444007097243e-03   2.5100015519081515e-03   2.4505211157799535e-03   2.5091140823164330e-03   2.4498359687203236e-03   2.5083863918658831e-03   2.4492748803898413e-03   2.5077902099578612e-03   2.4488159698913018e-03   2.5073024188774873e-03   2.4484413861705825e-03   2.5069041333020533e-03   2.4481365885847687e-03   2.5065799528546742e-03   2.4478897655169042e-03   2.5063173556128474e-03   2.4476913651884915e-03   2.5061062069887752e-03   2.4475337182685089e-03   2.5059383635705652e-03   2.4474107361744770e-03   2.5058073556608329e-03   2.4473176723890868e-03   2.5057081356130015e-03   2.4472509368908381e-03   2.5056368818221651e-03   2.4472079560757722e-03   2.5055908505229826e-03   2.4471870724591142e-03   2.5055682694913690e-03   2.4471874800858014e-03   2.5055682694317626e-03   2.4472091930289380e-03   2.5055908503349242e-03   2.4472530456836126e-03   2.5056368814764256e-03   2.4473207248289315e-03   2.5057081350559614e-03   2.4474148346899189e-03   2.5058073548060514e-03   2.4475389975368942e-03   2.5059383622853724e-03   2.4476979937690024e-03   2.5061062050737229e-03   2.4478979470019552e-03   2.5063173527706986e-03   2.4481465614872109e-03   2.5065799486443754e-03   2.4484534213107929e-03   2.5069041270701668e-03   2.4488303633557751e-03   2.5073024096568695e-03   2.4492919390825887e-03   2.5077901963175332e-03   2.4498559839435997e-03   2.5083863716889973e-03   2.4505443178986621e-03   2.5091140524716037e-03   2.4513836062970231e-03   2.5100015077636367e-03   2.4524064176776467e-03   2.5110747441332354e-03   2.4536525242704939e-03   2.3780900216662480e-03   2.2102835010076281e-03   2.3772538961856515e-03   2.2097536476677788e-03   2.3765686689189215e-03   2.2093067920870243e-03   2.3760075263643647e-03   2.2089418043932242e-03   2.3755485792094928e-03   2.2086442903409805e-03   2.3751739707113181e-03   2.2084025678635183e-03   2.3748691563816003e-03   2.2082071795299805e-03   2.3746223220048211e-03   2.2080505030022358e-03   2.3744239140473982e-03   2.2079264404710926e-03   2.3742662619943302e-03   2.2078301723992061e-03   2.3741432764665107e-03   2.2077579642569003e-03   2.3740502104137259e-03   2.2077070175740938e-03   2.3739834734625874e-03   2.2076753587417057e-03   2.3739404917836569e-03   2.2076617607215887e-03   2.3739196077580921e-03   2.2076656942769625e-03   2.3739200153673700e-03   2.2076873065987072e-03   2.3739417286818922e-03   2.2077274263451055e-03   2.3739855821543849e-03   2.2077875951932472e-03   2.3740532626908757e-03   2.2078701270689381e-03   2.3741473747322908e-03   2.2079781973288054e-03   2.3742715408873404e-03   2.2081159653622928e-03   2.3744305420685639e-03   2.2082887354137682e-03   2.3746305026597497e-03   2.2085031619575889e-03   2.3748791280543140e-03   2.2087675077565308e-03   2.3751860040313456e-03   2.2090919648824173e-03   2.3755629699808455e-03   2.2094890515771170e-03   2.3760245810730972e-03   2.2099741010091585e-03   2.3765886782489906e-03   2.2105658619023518e-03   2.3772770895873667e-03   2.2112872358845100e-03   2.3781164924469426e-03   2.2121661825065782e-03   2.3791394731304425e-03   2.2132368305795408e-03   2.3803811279488329e-03   2.2145408442584922e-03   2.0749195450957135e-03   1.8245913817840679e-03   2.0743730777333502e-03   1.8243537678846668e-03   2.0739262037670716e-03   1.8241449093117526e-03   2.0735612036493580e-03   1.8239756758948380e-03   2.0732636812066866e-03   1.8238391187163226e-03   2.0730219530701362e-03   1.8237296888655586e-03   2.0728265609305865e-03   1.8236429774688926e-03   2.0726698818592354e-03   1.8235755146699156e-03   2.0725458176521381e-03   1.8235246149323260e-03   2.0724495485118502e-03   1.8234882594064172e-03   2.0723773397428847e-03   1.8234650085993782e-03   2.0723263927779068e-03   1.8234539404806895e-03   2.0722947339640438e-03   1.8234546106237529e-03   2.0722811362660237e-03   1.8234670321648893e-03   2.0722850704970536e-03   1.8234916743500190e-03   2.0723066839528721e-03   1.8235294793094361e-03   2.0723468054677646e-03   1.8235818975098647e-03   2.0724069769932807e-03   1.8236509431292975e-03   2.0724895128707401e-03   1.8237392714259687e-03   2.0725975890778237e-03   1.8238502810693311e-03   2.0727353659269494e-03   1.8239882454103742e-03   2.0729081490306260e-03   1.8241584778391244e-03   2.0731225948888402e-03   1.8243675377595790e-03   2.0733869692618578e-03   1.8246234853747630e-03   2.0737114686560452e-03   1.8249361954937632e-03   2.0741086178730798e-03   1.8253177430499596e-03   2.0745937597846189e-03   1.8257828760822586e-03   2.0751856574667883e-03   1.8263495957445827e-03   2.0759072337763096e-03   1.8270398676892680e-03   2.0767864796642382e-03   1.8278804952058664e-03   2.0778575703859956e-03   1.8289041921717803e-03   2.0791604704800135e-03   1.8301509037080641e-03   1.6477268851140350e-03   1.3529861718830690e-03   1.6474699555391683e-03   1.3529951144690630e-03   1.6472612587195082e-03   1.3529877255459043e-03   1.6470921346714389e-03   1.3529840982319280e-03   1.6469556514508131e-03   1.3529835541297227e-03   1.6468462716248448e-03   1.3529857079358949e-03   1.6467595940834595e-03   1.3529903960820991e-03   1.6466921542244027e-03   1.3529976322190496e-03   1.6466412700715245e-03   1.3530075818992166e-03   1.6466049251937815e-03   1.3530205514751493e-03   1.6465816817509004e-03   1.3530369880763921e-03   1.6465706188552379e-03   1.3530574888334823e-03   1.6465712928907825e-03   1.3530828184681884e-03   1.6465837175979462e-03   1.3531139350945708e-03   1.6466083627140000e-03   1.3531520246660091e-03   1.6466461708241017e-03   1.3531985450234289e-03   1.6466985928839445e-03   1.3532552810005191e-03   1.6467676436704803e-03   1.3533244125611215e-03   1.6468559792438510e-03   1.3534085985169204e-03   1.6469669994028126e-03   1.3535110790338378e-03   1.6471049791303193e-03   1.3536358009174172e-03   1.6472752342042932e-03   1.3537875706113780e-03   1.6474843275431472e-03   1.3539722409939775e-03   1.6477403245362613e-03   1.3541969394753441e-03   1.6480531076559087e-03   1.3544703466535414e-03   1.6484347631647741e-03   1.3548030369759747e-03   1.6489000558554336e-03   1.3552078955948719e-03   1.6494670116599206e-03   1.3557006290636432e-03   1.6501576328785560e-03   1.3563003919095729e-03   1.6509987770063138e-03   1.3570305567279597e-03   1.6520232380958482e-03   1.3579196626679097e-03   1.6532708862543504e-03   1.3590025865645079e-03   1.1615482516923199e-03   8.6726548940021186e-04   1.1615366600708085e-03   8.6743776952656582e-04   1.1615297039323886e-03   8.6756465096724119e-04   1.1615263692307705e-03   8.6767126955438997e-04   1.1615260229803960e-03   8.6776108797311522e-04   1.1615283105834023e-03   8.6783712886616415e-04   1.1615330892359877e-03   8.6790202440947730e-04   1.1615403866349655e-03   8.6795807245369284e-04   1.1615503778403414e-03   8.6800729440353862e-04   1.1615633756491507e-03   8.6805149233754313e-04   1.1615798315725279e-03   8.6809230437199635e-04   1.1616003457397008e-03   8.6813125824139622e-04   1.1616256849536104e-03   8.6816982369979578e-04   1.1616568088149569e-03   8.6820946477812538e-04   1.1616949043