<?xml version="1.0"?>
<VTKFile type="UnstructuredGrid"  version="0.1"  >
<UnstructuredGrid>
<Piece  NumberOfPoints="25" NumberOfCells="32">
<Points>
<DataArray  type="Float64"  NumberOfComponents="3"  format="ascii">0 0 0  0.25 0 0  0.5 0 0  0.75 0 0  1 0 0  0 0.25 0  0.25 0.25 0  0.5 0.25 0  0.75 0.25 0  1 0.25 0  0 0.5 0  0.25 0.5 0  0.5 0.5 0  0.75 0.5 0  1 0.5 0  0 0.75 0  0.25 0.75 0  0.5 0.75 0  0.75 0.75 0  1 0.75 0  0 1 0  0.25 1 0  0.5 1 0  0.75 1 0  1 1 0  </DataArray>
</Points>
<Cells>
<DataArray  type="UInt32"  Name="connectivity"  format="ascii">0 1 6  0 5 6  1 2 7  1 6 7  2 3 8  2 7 8  3 4 9  3 8 9  5 6 11  5 10 11  6 7 12  6 11 12  7 8 13  7 12 13  8 9 14  8 13 14  10 11 16  10 15 16  11 12 17  11 16 17  12 13 18  12 17 18  13 14 19  13 18 19  15 16 21  15 20 21  16 17 22  16 21 22  17 18 23  17 22 23  18 19 24  18 23 24  </DataArray>
<DataArray  type="UInt32"  Name="offsets"  format="ascii">3 6 9 12 15 18 21 24 27 30 33 36 39 42 45 48 51 54 57 60 63 66 69 72 75 78 81 84 87 90 93 96 </DataArray>
<DataArray  type="UInt8"  Name="types"  format="ascii">5 5 5 5 5 5 5 5 5 5 5 5 5 5 5 5 5 5 5 5 5 5 5 5 5 5 5 5 5 5 5 5 </DataArray>
</Cells>
<CellData  Scalars="f_925"> 
<DataArray  type="Float64"  Name="f_925"  format="ascii">1.0472940371189026e+00   5.5573223349269281e+00   1.0164193064532041e+00   5.1401609878127363e+00   1.0273351721637163e+00   5.1401609878127354e+00   1.0468392093809655e+00   5.5686930283753782e+00   5.5686930283753782e+00   1.0582099028294145e+00   5.1401609878127363e+00   1.0277899999016540e+00   5.1401609878127354e+00   1.0168741341911425e+00   5.5573223349269290e+00   1.0586647305673542e+00   1.0586647305673524e+00   5.5573223349269272e+00   1.0168741341911418e+00   5.1401609878127363e+00   1.0277899999016544e+00   5.1401609878127346e+00   1.0582099028294158e+00   5.5686930283753782e+00   5.5686930283753782e+00   1.0468392093809649e+00   5.1401609878127363e+00   1.0273351721637163e+00   5.1401609878127363e+00   1.0164193064532046e+00   5.5573223349269290e+00   1.0472940371189039e+00   </DataArray> 
</CellData> 
</Piece>
</UnstructuredGrid>
</VTKFile>