<?xml version="1.0"?>
<VTKFile type="UnstructuredGrid"  version="0.1"  >
<UnstructuredGrid>
<Piece  NumberOfPoints="25" NumberOfCells="32">
<Points>
<DataArray  type="Float64"  NumberOfComponents="3"  format="ascii">0 0 0  0.25 0 0  0.5 0 0  0.75 0 0  1 0 0  0 0.25 0  0.25 0.25 0  0.5 0.25 0  0.75 0.25 0  1 0.25 0  0 0.5 0  0.25 0.5 0  0.5 0.5 0  0.75 0.5 0  1 0.5 0  0 0.75 0  0.25 0.75 0  0.5 0.75 0  0.75 0.75 0  1 0.75 0  0 1 0  0.25 1 0  0.5 1 0  0.75 1 0  1 1 0  </DataArray>
</Points>
<Cells>
<DataArray  type="UInt32"  Name="connectivity"  format="ascii">0 1 6  0 5 6  1 2 7  1 6 7  2 3 8  2 7 8  3 4 9  3 8 9  5 6 11  5 10 11  6 7 12  6 11 12  7 8 13  7 12 13  8 9 14  8 13 14  10 11 16  10 15 16  11 12 17  11 16 17  12 13 18  12 17 18  13 14 19  13 18 19  15 16 21  15 20 21  16 17 22  16 21 22  17 18 23  17 22 23  18 19 24  18 23 24  </DataArray>
<DataArray  type="UInt32"  Name="offsets"  format="ascii">3 6 9 12 15 18 21 24 27 30 33 36 39 42 45 48 51 54 57 60 63 66 69 72 75 78 81 84 87 90 93 96 </DataArray>
<DataArray  type="UInt8"  Name="types"  format="ascii">5 5 5 5 5 5 5 5 5 5 5 5 5 5 5 5 5 5 5 5 5 5 5 5 5 5 5 5 5 5 5 5 </DataArray>
</Cells>
<CellData  Scalars="f_345"> 
<DataArray  type="Float64"  Name="f_345"  format="ascii">6.2806642558209291e-01   5.0534211881215296e-01   6.2624907891271653e-01   5.7740810721196933e-01   6.2790151747791723e-01   5.7938892576341838e-01   6.8189495278414380e-01   5.5735177934770541e-01   5.5735177934770841e-01   6.8210199377045877e-01   5.7938892576341661e-01   6.2791723730963611e-01   5.7740810721196500e-01   6.2626479874443641e-01   5.0534211881213231e-01   6.2827346656839678e-01   6.2827346656840544e-01   5.0534211881215307e-01   6.2626479874445051e-01   5.7740810721197244e-01   6.2791723730965077e-01   5.7938892576341883e-01   6.8210199377045466e-01   5.5735177934770586e-01   5.5735177934770763e-01   6.8189495278413359e-01   5.7938892576342349e-01   6.2790151747789336e-01   5.7740810721197589e-01   6.2624907891269044e-01   5.0534211881213253e-01   6.2806642558206860e-01   </DataArray> 
</CellData> 
</Piece>
</UnstructuredGrid>
</VTKFile>