<?xml version="1.0"?>
<VTKFile type="UnstructuredGrid"  version="0.1"  >
<UnstructuredGrid>
<Piece  NumberOfPoints="4225" NumberOfCells="8192">
<Points>
<DataArray  type="Float64"  NumberOfComponents="3"  format="ascii">0 0 0  0.015625 0 0  0.03125 0 0  0.046875 0 0  0.0625 0 0  0.078125 0 0  0.09375 0 0  0.109375 0 0  0.125 0 0  0.140625 0 0  0.15625 0 0  0.171875 0 0  0.1875 0 0  0.203125 0 0  0.21875 0 0  0.234375 0 0  0.25 0 0  0.265625 0 0  0.28125 0 0  0.296875 0 0  0.3125 0 0  0.328125 0 0  0.34375 0 0  0.359375 0 0  0.375 0 0  0.390625 0 0  0.40625 0 0  0.421875 0 0  0.4375 0 0  0.453125 0 0  0.46875 0 0  0.484375 0 0  0.5 0 0  0.515625 0 0  0.53125 0 0  0.546875 0 0  0.5625 0 0  0.578125 0 0  0.59375 0 0  0.609375 0 0  0.625 0 0  0.640625 0 0  0.65625 0 0  0.671875 0 0  0.6875 0 0  0.703125 0 0  0.71875 0 0  0.734375 0 0  0.75 0 0  0.765625 0 0  0.78125 0 0  0.796875 0 0  0.8125 0 0  0.828125 0 0  0.84375 0 0  0.859375 0 0  0.875 0 0  0.890625 0 0  0.90625 0 0  0.921875 0 0  0.9375 0 0  0.953125 0 0  0.96875 0 0  0.984375 0 0  1 0 0  0 0.015625 0  0.015625 0.015625 0  0.03125 0.015625 0  0.046875 0.015625 0  0.0625 0.015625 0  0.078125 0.015625 0  0.09375 0.015625 0  0.109375 0.015625 0  0.125 0.015625 0  0.140625 0.015625 0  0.15625 0.015625 0  0.171875 0.015625 0  0.1875 0.015625 0  0.203125 0.015625 0  0.21875 0.015625 0  0.234375 0.015625 0  0.25 0.015625 0  0.265625 0.015625 0  0.28125 0.015625 0  0.296875 0.015625 0  0.3125 0.015625 0  0.328125 0.015625 0  0.34375 0.015625 0  0.359375 0.015625 0  0.375 0.015625 0  0.390625 0.015625 0  0.40625 0.015625 0  0.421875 0.015625 0  0.4375 0.015625 0  0.453125 0.015625 0  0.46875 0.015625 0  0.484375 0.015625 0  0.5 0.015625 0  0.515625 0.015625 0  0.53125 0.015625 0  0.546875 0.015625 0  0.5625 0.015625 0  0.578125 0.015625 0  0.59375 0.015625 0  0.609375 0.015625 0  0.625 0.015625 0  0.640625 0.015625 0  0.65625 0.015625 0  0.671875 0.015625 0  0.6875 0.015625 0  0.703125 0.015625 0  0.71875 0.015625 0  0.734375 0.015625 0  0.75 0.015625 0  0.765625 0.015625 0  0.78125 0.015625 0  0.796875 0.015625 0  0.8125 0.015625 0  0.828125 0.015625 0  0.84375 0.015625 0  0.859375 0.015625 0  0.875 0.015625 0  0.890625 0.015625 0  0.90625 0.015625 0  0.921875 0.015625 0  0.9375 0.015625 0  0.953125 0.015625 0  0.96875 0.015625 0  0.984375 0.015625 0  1 0.015625 0  0 0.03125 0  0.015625 0.03125 0  0.03125 0.03125 0  0.046875 0.03125 0  0.0625 0.03125 0  0.078125 0.03125 0  0.09375 0.03125 0  0.109375 0.03125 0  0.125 0.03125 0  0.140625 0.03125 0  0.15625 0.03125 0  0.171875 0.03125 0  0.1875 0.03125 0  0.203125 0.03125 0  0.21875 0.03125 0  0.234375 0.03125 0  0.25 0.03125 0  0.265625 0.03125 0  0.28125 0.03125 0  0.296875 0.03125 0  0.3125 0.03125 0  0.328125 0.03125 0  0.34375 0.03125 0  0.359375 0.03125 0  0.375 0.03125 0  0.390625 0.03125 0  0.40625 0.03125 0  0.421875 0.03125 0  0.4375 0.03125 0  0.453125 0.03125 0  0.46875 0.03125 0  0.484375 0.03125 0  0.5 0.03125 0  0.515625 0.03125 0  0.53125 0.03125 0  0.546875 0.03125 0  0.5625 0.03125 0  0.578125 0.03125 0  0.59375 0.03125 0  0.609375 0.03125 0  0.625 0.03125 0  0.640625 0.03125 0  0.65625 0.03125 0  0.671875 0.03125 0  0.6875 0.03125 0  0.703125 0.03125 0  0.71875 0.03125 0  0.734375 0.03125 0  0.75 0.03125 0  0.765625 0.03125 0  0.78125 0.03125 0  0.796875 0.03125 0  0.8125 0.03125 0  0.828125 0.03125 0  0.84375 0.03125 0  0.859375 0.03125 0  0.875 0.03125 0  0.890625 0.03125 0  0.90625 0.03125 0  0.921875 0.03125 0  0.9375 0.03125 0  0.953125 0.03125 0  0.96875 0.03125 0  0.984375 0.03125 0  1 0.03125 0  0 0.046875 0  0.015625 0.046875 0  0.03125 0.046875 0  0.046875 0.046875 0  0.0625 0.046875 0  0.078125 0.046875 0  0.09375 0.046875 0  0.109375 0.046875 0  0.125 0.046875 0  0.140625 0.046875 0  0.15625 0.046875 0  0.171875 0.046875 0  0.1875 0.046875 0  0.203125 0.046875 0  0.21875 0.046875 0  0.234375 0.046875 0  0.25 0.046875 0  0.265625 0.046875 0  0.28125 0.046875 0  0.296875 0.046875 0  0.3125 0.046875 0  0.328125 0.046875 0  0.34375 0.046875 0  0.359375 0.046875 0  0.375 0.046875 0  0.390625 0.046875 0  0.40625 0.046875 0  0.421875 0.046875 0  0.4375 0.046875 0  0.453125 0.046875 0  0.46875 0.046875 0  0.484375 0.046875 0  0.5 0.046875 0  0.515625 0.046875 0  0.53125 0.046875 0  0.546875 0.046875 0  0.5625 0.046875 0  0.578125 0.046875 0  0.59375 0.046875 0  0.609375 0.046875 0  0.625 0.046875 0  0.640625 0.046875 0  0.65625 0.046875 0  0.671875 0.046875 0  0.6875 0.046875 0  0.703125 0.046875 0  0.71875 0.046875 0  0.734375 0.046875 0  0.75 0.046875 0  0.765625 0.046875 0  0.78125 0.046875 0  0.796875 0.046875 0  0.8125 0.046875 0  0.828125 0.046875 0  0.84375 0.046875 0  0.859375 0.046875 0  0.875 0.046875 0  0.890625 0.046875 0  0.90625 0.046875 0  0.921875 0.046875 0  0.9375 0.046875 0  0.953125 0.046875 0  0.96875 0.046875 0  0.984375 0.046875 0  1 0.046875 0  0 0.0625 0  0.015625 0.0625 0  0.03125 0.0625 0  0.046875 0.0625 0  0.0625 0.0625 0  0.078125 0.0625 0  0.09375 0.0625 0  0.109375 0.0625 0  0.125 0.0625 0  0.140625 0.0625 0  0.15625 0.0625 0  0.171875 0.0625 0  0.1875 0.0625 0  0.203125 0.0625 0  0.21875 0.0625 0  0.234375 0.0625 0  0.25 0.0625 0  0.265625 0.0625 0  0.28125 0.0625 0  0.296875 0.0625 0  0.3125 0.0625 0  0.328125 0.0625 0  0.34375 0.0625 0  0.359375 0.0625 0  0.375 0.0625 0  0.390625 0.0625 0  0.40625 0.0625 0  0.421875 0.0625 0  0.4375 0.0625 0  0.453125 0.0625 0  0.46875 0.0625 0  0.484375 0.0625 0  0.5 0.0625 0  0.515625 0.0625 0  0.53125 0.0625 0  0.546875 0.0625 0  0.5625 0.0625 0  0.578125 0.0625 0  0.59375 0.0625 0  0.609375 0.0625 0  0.625 0.0625 0  0.640625 0.0625 0  0.65625 0.0625 0  0.671875 0.0625 0  0.6875 0.0625 0  0.703125 0.0625 0  0.71875 0.0625 0  0.734375 0.0625 0  0.75 0.0625 0  0.765625 0.0625 0  0.78125 0.0625 0  0.796875 0.0625 0  0.8125 0.0625 0  0.828125 0.0625 0  0.84375 0.0625 0  0.859375 0.0625 0  0.875 0.0625 0  0.890625 0.0625 0  0.90625 0.0625 0  0.921875 0.0625 0  0.9375 0.0625 0  0.953125 0.0625 0  0.96875 0.0625 0  0.984375 0.0625 0  1 0.0625 0  0 0.078125 0  0.015625 0.078125 0  0.03125 0.078125 0  0.046875 0.078125 0  0.0625 0.078125 0  0.078125 0.078125 0  0.09375 0.078125 0  0.109375 0.078125 0  0.125 0.078125 0  0.140625 0.078125 0  0.15625 0.078125 0  0.171875 0.078125 0  0.1875 0.078125 0  0.203125 0.078125 0  0.21875 0.078125 0  0.234375 0.078125 0  0.25 0.078125 0  0.265625 0.078125 0  0.28125 0.078125 0  0.296875 0.078125 0  0.3125 0.078125 0  0.328125 0.078125 0  0.34375 0.078125 0  0.359375 0.078125 0  0.375 0.078125 0  0.390625 0.078125 0  0.40625 0.078125 0  0.421875 0.078125 0  0.4375 0.078125 0  0.453125 0.078125 0  0.46875 0.078125 0  0.484375 0.078125 0  0.5 0.078125 0  0.515625 0.078125 0  0.53125 0.078125 0  0.546875 0.078125 0  0.5625 0.078125 0  0.578125 0.078125 0  0.59375 0.078125 0  0.609375 0.078125 0  0.625 0.078125 0  0.640625 0.078125 0  0.65625 0.078125 0  0.671875 0.078125 0  0.6875 0.078125 0  0.703125 0.078125 0  0.71875 0.078125 0  0.734375 0.078125 0  0.75 0.078125 0  0.765625 0.078125 0  0.78125 0.078125 0  0.796875 0.078125 0  0.8125 0.078125 0  0.828125 0.078125 0  0.84375 0.078125 0  0.859375 0.078125 0  0.875 0.078125 0  0.890625 0.078125 0  0.90625 0.078125 0  0.921875 0.078125 0  0.9375 0.078125 0  0.953125 0.078125 0  0.96875 0.078125 0  0.984375 0.078125 0  1 0.078125 0  0 0.09375 0  0.015625 0.09375 0  0.03125 0.09375 0  0.046875 0.09375 0  0.0625 0.09375 0  0.078125 0.09375 0  0.09375 0.09375 0  0.109375 0.09375 0  0.125 0.09375 0  0.140625 0.09375 0  0.15625 0.09375 0  0.171875 0.09375 0  0.1875 0.09375 0  0.203125 0.09375 0  0.21875 0.09375 0  0.234375 0.09375 0  0.25 0.09375 0  0.265625 0.09375 0  0.28125 0.09375 0  0.296875 0.09375 0  0.3125 0.09375 0  0.328125 0.09375 0  0.34375 0.09375 0  0.359375 0.09375 0  0.375 0.09375 0  0.390625 0.09375 0  0.40625 0.09375 0  0.421875 0.09375 0  0.4375 0.09375 0  0.453125 0.09375 0  0.46875 0.09375 0  0.484375 0.09375 0  0.5 0.09375 0  0.515625 0.09375 0  0.53125 0.09375 0  0.546875 0.09375 0  0.5625 0.09375 0  0.578125 0.09375 0  0.59375 0.09375 0  0.609375 0.09375 0  0.625 0.09375 0  0.640625 0.09375 0  0.65625 0.09375 0  0.671875 0.09375 0  0.6875 0.09375 0  0.703125 0.09375 0  0.71875 0.09375 0  0.734375 0.09375 0  0.75 0.09375 0  0.765625 0.09375 0  0.78125 0.09375 0  0.796875 0.09375 0  0.8125 0.09375 0  0.828125 0.09375 0  0.84375 0.09375 0  0.859375 0.09375 0  0.875 0.09375 0  0.890625 0.09375 0  0.90625 0.09375 0  0.921875 0.09375 0  0.9375 0.09375 0  0.953125 0.09375 0  0.96875 0.09375 0  0.984375 0.09375 0  1 0.09375 0  0 0.109375 0  0.015625 0.109375 0  0.03125 0.109375 0  0.046875 0.109375 0  0.0625 0.109375 0  0.078125 0.109375 0  0.09375 0.109375 0  0.109375 0.109375 0  0.125 0.109375 0  0.140625 0.109375 0  0.15625 0.109375 0  0.171875 0.109375 0  0.1875 0.109375 0  0.203125 0.109375 0  0.21875 0.109375 0  0.234375 0.109375 0  0.25 0.109375 0  0.265625 0.109375 0  0.28125 0.109375 0  0.296875 0.109375 0  0.3125 0.109375 0  0.328125 0.109375 0  0.34375 0.109375 0  0.359375 0.109375 0  0.375 0.109375 0  0.390625 0.109375 0  0.40625 0.109375 0  0.421875 0.109375 0  0.4375 0.109375 0  0.453125 0.109375 0  0.46875 0.109375 0  0.484375 0.109375 0  0.5 0.109375 0  0.515625 0.109375 0  0.53125 0.109375 0  0.546875 0.109375 0  0.5625 0.109375 0  0.578125 0.109375 0  0.59375 0.109375 0  0.609375 0.109375 0  0.625 0.109375 0  0.640625 0.109375 0  0.65625 0.109375 0  0.671875 0.109375 0  0.6875 0.109375 0  0.703125 0.109375 0  0.71875 0.109375 0  0.734375 0.109375 0  0.75 0.109375 0  0.765625 0.109375 0  0.78125 0.109375 0  0.796875 0.109375 0  0.8125 0.109375 0  0.828125 0.109375 0  0.84375 0.109375 0  0.859375 0.109375 0  0.875 0.109375 0  0.890625 0.109375 0  0.90625 0.109375 0  0.921875 0.109375 0  0.9375 0.109375 0  0.953125 0.109375 0  0.96875 0.109375 0  0.984375 0.109375 0  1 0.109375 0  0 0.125 0  0.015625 0.125 0  0.03125 0.125 0  0.046875 0.125 0  0.0625 0.125 0  0.078125 0.125 0  0.09375 0.125 0  0.109375 0.125 0  0.125 0.12
[...]
<CellData  Scalars="f_577"> 
<DataArray  type="Float64"  Name="f_577"  format="ascii">7.4417112399415561e-08   7.4349542132416456e-08   7.4417111449431291e-08   7.4385430923440241e-08   7.4417110345212631e-08   7.4385429825503085e-08   7.4417109344947242e-08   7.4385428830998023e-08   7.4417108438984452e-08   7.4385427930159134e-08   7.4417107618443069e-08   7.4385427114340833e-08   7.4417106875630551e-08   7.4385426375790307e-08   7.4417106203204115e-08   7.4385425707209494e-08   7.4417105594730096e-08   7.4385425102297619e-08   7.4417105044421552e-08   7.4385424555105137e-08   7.4417104546858861e-08   7.4385424060310457e-08   7.4417104097234238e-08   7.4385423613224219e-08   7.4417103691316793e-08   7.4385423209680663e-08   7.4417103325120455e-08   7.4385422845567232e-08   7.4417102995096209e-08   7.4385422517400966e-08   7.4417102698114559e-08   7.4385422222154371e-08   7.4417102431325863e-08   7.4385421956869674e-08   7.4417102192002765e-08   7.4385421718956225e-08   7.4417101978064768e-08   7.4385421506174600e-08   7.4417101787256634e-08   7.4385421316511548e-08   7.4417101617830060e-08   7.4385421148147590e-08   7.4417101468176610e-08   7.4385420999349220e-08   7.4417101336792734e-08   7.4385420868681682e-08   7.4417101222384761e-08   7.4385420754867784e-08   7.4417101123921165e-08   7.4385420657119467e-08   7.4417101040492800e-08   7.4385420574176492e-08   7.4417100971155636e-08   7.4385420505146391e-08   7.4417100915315267e-08   7.4385420449626915e-08   7.4417100872447168e-08   7.4385420407075275e-08   7.4417100842131766e-08   7.4385420376966020e-08   7.4417100824036892e-08   7.4385420358966888e-08   7.4417100818022654e-08   7.4385420353007892e-08   7.4417100824019171e-08   7.4385420359053404e-08   7.4417100842096310e-08   7.4385420377104430e-08   7.4417100872463897e-08   7.4385420407229753e-08   7.4417100915331718e-08   7.4385420449867446e-08   7.4417100971154339e-08   7.4385420505506962e-08   7.4417101040491199e-08   7.4385420574393558e-08   7.4417101123971696e-08   7.4385420657506945e-08   7.4417101222365054e-08   7.4385420755442139e-08   7.4417101336755226e-08   7.4385420869301207e-08   7.4417101468156188e-08   7.4385421000029599e-08   7.4417101617844208e-08   7.4385421148868998e-08   7.4417101787252875e-08   7.4385421317447229e-08   7.4417101978060546e-08   7.4385421507233788e-08   7.4417102192015484e-08   7.4385421720066499e-08   7.4417102431285589e-08   7.4385421958044853e-08   7.4417102698108683e-08   7.4385422223531131e-08   7.4417102995107141e-08   7.4385422518992793e-08   7.4417103325113202e-08   7.4385422847281429e-08   7.4417103691308733e-08   7.4385423211547550e-08   7.4417104097225304e-08   7.4385423615430594e-08   7.4417104546848948e-08   7.4385424062622632e-08   7.4417105044410594e-08   7.4385424557533514e-08   7.4417105594752927e-08   7.4385425105010123e-08   7.4417106203173265e-08   7.4385425710354659e-08   7.4417106875563331e-08   7.4385426379323930e-08   7.4417107618444207e-08   7.4385427118235252e-08   7.4417108438896480e-08   7.4385427934437722e-08   7.4417109344944753e-08   7.4385428835700710e-08   7.4417110345190608e-08   7.4385429830686252e-08   7.4417111449372025e-08   7.4385430929175713e-08   7.4417112286907284e-08   7.4385432141511127e-08   7.4443990400450448e-08   7.4376394896627193e-08   7.3031652986354432e-08   7.2831470643599148e-08   7.3022828609184457e-08   7.2929002546260532e-08   7.3022827633154864e-08   7.2929003392719654e-08   7.3022826748950220e-08   7.2929002526211977e-08   7.3022825948324488e-08   7.2929001741322965e-08   7.3022825223538445e-08   7.2929001030765502e-08   7.3022824567396787e-08   7.2929000387090143e-08   7.3022823973567161e-08   7.2928999805507435e-08   7.3022823436605857e-08   7.2928999278661823e-08   7.3022822950920130e-08   7.2928998802872934e-08   7.3022822512334318e-08   7.2928998372960978e-08   7.3022822116316359e-08   7.2928997984667615e-08   7.3022821758875919e-08   7.2928997634267846e-08   7.3022821436864155e-08   7.2928997318963061e-08   7.3022821147005987e-08   7.2928997034658702e-08   7.3022820886833623e-08   7.2928996779618273e-08   7.3022820653163411e-08   7.2928996550789291e-08   7.3022820444461428e-08   7.2928996346414323e-08   7.3022820258490832e-08   7.2928996163854040e-08   7.3022820093129089e-08   7.2928996002136895e-08   7.3022819946888864e-08   7.2928995858765517e-08   7.3022819818927610e-08   7.2928995733647078e-08   7.3022819707296251e-08   7.2928995623981206e-08   7.3022819611396107e-08   7.2928995530208293e-08   7.3022819529842227e-08   7.2928995450731708e-08   7.3022819462242062e-08   7.2928995384625829e-08   7.3022819407846758e-08   7.2928995331334526e-08   7.3022819366148689e-08   7.2928995290790023e-08   7.3022819336455724e-08   7.2928995261927799e-08   7.3022819319067474e-08   7.2928995245370515e-08   7.3022819313361053e-08   7.2928995239777967e-08   7.3022819319359688e-08   7.2928995246050775e-08   7.3022819337339682e-08   7.2928995263450327e-08   7.3022819366771391e-08   7.2928995293201354e-08   7.3022819408841466e-08   7.2928995334957722e-08   7.3022819463365718e-08   7.2928995389133407e-08   7.3022819531151395e-08   7.2928995456261218e-08   7.3022819613017037e-08   7.2928995536944719e-08   7.3022819709089274e-08   7.2928995632013818e-08   7.3022819820832733e-08   7.2928995742717848e-08   7.3022819949642436e-08   7.2928995869333524e-08   7.3022820095795364e-08   7.2928996013504024e-08   7.3022820261528252e-08   7.2928996177148301e-08   7.3022820447982796e-08   7.2928996361307822e-08   7.3022820657303470e-08   7.2928996567716014e-08   7.3022820891151175e-08   7.2928996798039109e-08   7.3022821152143427e-08   7.2928997055398145e-08   7.3022821442217020e-08   7.2928997341921796e-08   7.3022821764704618e-08   7.2928997660338064e-08   7.3022822122846030e-08   7.2928998013307096e-08   7.3022822519893888e-08   7.2928998404251434e-08   7.3022822959226148e-08   7.2928998837774808e-08   7.3022823445836002e-08   7.2928999317529147e-08   7.3022823983701367e-08   7.2928999847980539e-08   7.3022824578634109e-08   7.2929000434331050e-08   7.3022825235823441e-08   7.2929001082501361e-08   7.3022825962175925e-08   7.2929001798735732e-08   7.3022826764160682e-08   7.2929002589325884e-08   7.3022827649711407e-08   7.2929003462735014e-08   7.3022828627556562e-08   7.2929004426990016e-08   7.3022829707036883e-08   7.2929005491109778e-08   7.3022830898287649e-08   7.2929006666125238e-08   7.3022829280779941e-08   7.2929007962306935e-08   7.3111187125799747e-08   7.2911063957900217e-08   7.0273257814665836e-08   6.9948114999626146e-08   7.0256164987220953e-08   7.0103796928411312e-08   7.0256164154201015e-08   7.0103801849564222e-08   7.0256163399892182e-08   7.0103801124398206e-08   7.0256162716792032e-08   7.0103800467501815e-08   7.0256162098641456e-08   7.0103799872815018e-08   7.0256161539700402e-08   7.0103799335018143e-08   7.0256161033278593e-08   7.0103798848256856e-08   7.0256160576393985e-08   7.0103798408758736e-08   7.0256160163124664e-08   7.0103798011049888e-08   7.0256159789538903e-08   7.0103797652266795e-08   7.0256159452903115e-08   7.0103797328687769e-08   7.0256159149915738e-08   7.0103797037425193e-08   7.0256158876645465e-08   7.0103796774805195e-08   7.0256158631872531e-08   7.0103796539458957e-08   7.0256158412183644e-08   7.0103796327961712e-08   7.0256158215386775e-08   7.0103796139286791e-08   7.0256158040149608e-08   7.0103795970849895e-08   7.0256157884844357e-08   7.0103795821510866e-08   7.0256157747413063e-08   7.0103795689773235e-08   7.0256157626930805e-08   7.0103795574385470e-08   7.0256157522109776e-08   7.0103795473761463e-08   7.0256157432020728e-08   7.0103795387624645e-08   7.0256157355311029e-08   7.0103795314366353e-08   7.0256157291819292e-08   7.0103795254390491e-08   7.0256157241050930e-08   7.0103795205794861e-08   7.0256157202483019e-08   7.0103795169437759e-08   7.0256157174875369e-08   7.0103795143615033e-08   7.0256157159198973e-08   7.0103795129147220e-08   7.0256157154073974e-08   7.0103795125307077e-08   7.0256157160427356e-08   7.0103795132728688e-08   7.0256157177737825e-08   7.0103795150459496e-08   7.0256157207251324e-08   7.0103795179222458e-08   7.0256157247044046e-08   7.0103795219522182e-08   7.0256157299671685e-08   7.0103795271627532e-08   7.0256157364792081e-08   7.0103795335902762e-08   7.0256157442993511e-08   7.0103795412729788e-08   7.0256157534820353e-08   7.0103795503068433e-08   7.0256157641829347e-08   7.0103795608343789e-08   7.0256157764020096e-08   7.0103795728740602e-08   7.0256157904036059e-08   7.0103795866094300e-08   7.0256158062012772e-08   7.0103796020748077e-08   7.0256158239848438e-08   7.0103796195288917e-08   7.0256158439282412e-08   7.0103796390624363e-08   7.0256158662097764e-08   7.0103796609477347e-08   7.0256158910895203e-08   7.0103796852691079e-08   7.0256159187797049e-08   7.0103797124212427e-08   7.0256159495220101e-08   7.0103797425064488e-08   7.0256159836508429e-08   7.0103797759171393e-08   7.0256160214529823e-08   7.0103798129377651e-08   7.0256160633759040e-08   7.0103798539535144e-08   7.0256161096975378e-08   7.0103798993393437e-08   7.0256161609823891e-08   7.0103799495422559e-08   7.0256162176284083e-08   7.0103800049937958e-08   7.0256162802950172e-08   7.0103800663543660e-08   7.0256163494544500e-08   7.0103801340485060e-08   7.0256164258702977e-08   7.0103802088956856e-08   7.0256165102859532e-08   7.0103802914523341e-08   7.0256166034693289e-08   7.0103803826965457e-08   7.0256167062699630e-08   7.0103804833163664e-08   7.0256168197970702e-08   7.0103805944852412e-08   7.0256169450627809e-08   7.0103807170909456e-08   7.0256163277549337e-08   7.0103808524251146e-08   7.0402349919056853e-08   7.0077431857998240e-08   6.6247930892413369e-08   6.5810280940142437e-08   6.6223441962203218e-08   6.6018385137588958e-08   6.6223441282010099e-08   6.6018396106775818e-08   6.6223440665675628e-08   6.6018395530769777e-08   6.6223440108290070e-08   6.6018395008924067e-08   6.6223439604161339e-08   6.6018394536520412e-08   6.6223439147625853e-08   6.6018394109888644e-08   6.6223438735625097e-08   6.6018393723779633e-08   6.6223438362149596e-08   6.6018393375367374e-08   6.6223438026454742e-08   6.6018393060721766e-08   6.6223437723104345e-08   6.6018392777195447e-08   6.6223437450128509e-08   6.6018392521742843e-08   6.6223437204237677e-08   6.6018392291713457e-08   6.6223436983068692e-08   6.6018392085609959e-08   6.6223436785301798e-08   6.6018391900868619e-08   6.6223436608356020e-08   6.6018391735814972e-08   6.6223436450647326e-08   6.6018391588637637e-08   6.6223436311130160e-08   6.6018391458584966e-08   6.6223436187827640e-08   6.6018391343848795e-08   6.6223436079733729e-08   6.6018391243590362e-08   6.6223435986099597e-08   6.6018391156263144e-08   6.6223435905089049e-08   6.6018391081691806e-08   6.6223435837271144e-08   6.6018391019301186e-08   6.6223435781241608e-08   6.6018390967810437e-08   6.6223435736296584e-08   6.6018390926738206e-08   6.6223435702048210e-08   6.6018390896566032e-08   6.6223435678403444e-08   6.6018390876498339e-08   6.6223435665711357e-08   6.6018390866186256e-08   6.6223435662660887e-08   6.6018390864870549e-08   6.6223435670172534e-08   6.6018390874194370e-08   6.6223435687629023e-08   6.6018390892650239e-08   6.6223435716084777e-08   6.6018390921341084e-08   6.6223435754437926e-08   6.6018390960268588e-08   6.6223435804538164e-08   6.6018391010181314e-08   6.6223435865677042e-08   6.6018391070639773e-08   6.6223435938954590e-08   6.6018391143189164e-08   6.6223436025678059e-08   6.6018391228177869e-08   6.6223436125854951e-08   6.6018391326309641e-08   6.6223436240311972e-08   6.6018391438827393e-08   6.6223436370936351e-08   6.6018391566476952e-08   6.6223436518511288e-08   6.6018391710535790e-08   6.6223436684227990e-08   6.6018391872108145e-08   6.6223436870445034e-08   6.6018392053707734e-08   6.6223437078348014e-08   6.6018392256571251e-08   6.6223437309905315e-08   6.6018392481800038e-08   6.6223437567749674e-08   6.6018392733053238e-08   6.6223437853673626e-08   6.6018393012278244e-08   6.6223438171445845e-08   6.6018393321496052e-08   6.6223438523868117e-08   6.6018393663580274e-08   6.6223438913091959e-08   6.6018394043246408e-08   6.6223439344720348e-08   6.6018394463320248e-08   6.6223439821778793e-08   6.6018394927240617e-08   6.6223440348991754e-08   6.6018395440477587e-08   6.6223440931889864e-08   6.6018396007357933e-08   6.6223441575545158e-08   6.6018396634230156e-08   6.6223442286356665e-08   6.6018397325547703e-08   6.6223443071596561e-08   6.6018398089654047e-08   6.6223443938143916e-08   6.6018398932628873e-08   6.6223444894846428e-08   6.6018399863829128e-08   6.6223445950903787e-08   6.6018400890706678e-08   6.6223447116172015e-08   6.6018402024822438e-08   6.6223448402346944e-08   6.6018403276055947e-08   6.6223435747451055e-08   6.6018404655964641e-08   6.6421578304339456e-08   6.5984393490011419e-08   6.1110363277091016e-08   6.0576983108311961e-08   6.1079634818816371e-08   6.0829767257432911e-08   6.1079634295152360e-08   6.0829786015642661e-08   6.1079633820552971e-08   6.0829785590762994e-08   6.1079633391859008e-08   6.0829785206245611e-08   6.1079633003905888e-08   6.0829784857967885e-08   6.1079632653532893e-08   6.0829784544400351e-08   6.1079632336459265e-08   6.0829784259863534e-08   6.1079632050788417e-08   6.0829784004643825e-08   6.1079631793242332e-08   6.0829783773573608e-08   6.1079631560667598e-08   6.0829783566265285e-08   6.1079631352181317e-08   6.0829783379793814e-08   6.1079631165006730e-08   6.0829783211862888e-08   6.1079630996374037e-08   6.0829783062519505e-08   6.1079630847162884e-08   6.0829782929472903e-08   6.1079630713715397e-08   6.0829782810430430e-08   6.1079630596157799e-08   6.0829782705762754e-08   6.1079630491716241e-08   6.0829782613664663e-08   6.1079630401273610e-08   6.0829782533952986e-08   6.1079630322306660e-08   6.0829782464975162e-08   6.1079630255695288e-08   6.0829782406517739e-08   6.1079630199048014e-08   6.0829782357230269e-08   6.1079630153117944e-08   6.0829782318161417e-08   6.1079630116897928e-08   6.0829782287703938e-08   6.1079630090387279e-08   6.0829782266202642e-08   6.1079630072324897e-08   6.0829782252804076e-08   6.1079630064600327e-08   6.0829782248053717e-08   6.1079630064315790e-08   6.0829782251533024e-08   6.1079630074365611e-08   6.0829782264179755e-08   6.1079630092487855e-08   6.0829782284505171e-08   6.1079630120440074e-08   6.0829782314236372e-08   6.1079630157594949e-08   6.0829782352372442e-08   6.1079630205086379e-08   6.0829782399655820e-08   6.1079630262409506e-08   6.0829782456876614e-08   6.1079630330573715e-08   6.0829782525499849e-08   6.1079630410713196e-08   6.0829782603748316e-08   6.1079630502825501e-08   6.0829782694416178e-08   6.1079630608045152e-08   6.0829782797300532e-08   6.1079630728011672e-08   6.0829782914346629e-08   6.1079630862853626e-08   6.0829783045681853e-08   6.1079631014328727e-08   6.0829783193682305e-08   6.1079631184332157e-08   6.0829783358425145e-08   6.1079631374123031e-08   6.0829783542967564e-08   6.1079631584834375e-08   6.0829783747655061e-08   6.1079631820249527e-08   6.0829783975615278e-08   6.1079632080489600e-08   6.0829784228296946e-08   6.1079632369720541e-08   6.0829784509002328e-08   6.1079632689698765e-08   6.0829784819138372e-08   6.1079633044716531e-08   6.0829785162797983e-08   6.1079633436533101e-08   6.0829785542847981e-08   6.1079633870948612e-08   6.0829785963460521e-08   6.1079634350606323e-08   6.0829786427155487e-08   6.1079634880676074e-08   6.0829786940069022e-08   6.1079635465822673e-08   6.0829787506748701e-08   6.1079636111714015e-08   6.0829788132822636e-08   6.1079636825785210e-08   6.0829788823770267e-08   6.1079637613587300e-08   6.0829789586448103e-08   6.1079638483176351e-08   6.0829790428073036e-08   6.1079639442625288e-08   6.0829791356816208e-08   6.1079640502141492e-08   6.0829792381683114e-08   6.1079641671303055e-08   6.0829793513557081e-08   6.1079642960946200e-08   6.0829794761388840e-08   6.1079622149148639e-08   6.0829796138911217e-08   6.1321851101811494e-08   6.0789242022551889e-08   5.5057988809787875e-08   5.4449334205503124e-08   5.5022417180490881e-08   5.4737338963925781e-08   5.5022416811324343e-08   5.4737366954156013e-08   5.5022416476221062e-08   5.4737366675826241e-08   5.5022416173523694e-08   5.4737366425229419e-08   5.5022415900110399e-08   5.4737366198912122e-08   5.5022415653117213e-08   5.4737365994205898e-08   5.5022415430753164e-08   5.4737365810313185e-08   5.5022415230142926e-08   5.4737365644401043e-08   5.5022415049022400e-08   5.4737365495587909e-08   5.5022414887264889e-08   5.4737365362426455e-08   5.5022414741886169e-08   5.4737365242642140e-08   5.5022414612520938e-08   5.4737365136414163e-08   5.5022414496428482e-08   5.4737365041385351e-08   5.5022414393964362e-08   5.4737364958137517e-08   5.5022414303216892e-08   5.4737364884727276e-08   5.5022414224292314e-08   5.4737364821074146e-08   5.5022414154939433e-08   5.4737364765403018e-08   5.5022414095744344e-08   5.4737364719168678e-08   5.5022414045631472e-08   5.4737364680263720e-08   5.5022414004481738e-08   5.4737364648942751e-08   5.5022413971224525e-08   5.4737364624472651e-08   5.5022413946923467e-08   5.4737364607823702e-08   5.5022413929674144e-08   5.4737364596894806e-08   5.5022413920074051e-08   5.4737364592988264e-08   5.5022413917169906e-08   5.4737364596729026e-08   5.5022413923217874e-08   5.4737364606604676e-08   5.5022413935961703e-08   5.4737364622028861e-08   5.5022413955997718e-08   5.4737364646003904e-08   5.5022413984277885e-08   5.4737364677385403e-08   5.5022414020912040e-08   5.4737364715539989e-08   5.5022414064957866e-08   5.4737364761189665e-08   5.5022414119624744e-08   5.4737364816026690e-08   5.5022414182545772e-08   5.4737364878831338e-08   5.5022414255137091e-08   5.4737364951549017e-08   5.5022414339790722e-08   5.4737365034416798e-08   5.5022414434832755e-08   5.4737365127677587e-08   5.5022414542898754e-08   5.4737365233263142e-08   5.5022414664099461e-08   5.4737365352063371e-08   5.5022414799871735e-08   5.4737365484310526e-08   5.5022414952005827e-08   5.4737365632116922e-08   5.5022415121574193e-08   5.4737365796905607e-08   5.5022415310128320e-08   5.4737365978930181e-08   5.5022415519828796e-08   5.4737366181179150e-08   5.5022415752331697e-08   5.4737366405823457e-08   5.5022416009562679e-08   5.4737366654791369e-08   5.5022416294496317e-08   5.4737366930424916e-08   5.5022416610484248e-08   5.4737367234651139e-08   5.5022416959781789e-08   5.4737367571337517e-08   5.5022417345276403e-08   5.4737367943144535e-08   5.5022417771362721e-08   5.4737368355148044e-08   5.5022418242600032e-08   5.4737368809032939e-08   5.5022418763269563e-08   5.4737369310364331e-08   5.5022419336850173e-08   5.4737369863483708e-08   5.5022419971211530e-08   5.4737370475167796e-08   5.5022420671142290e-08   5.4737371149352772e-08   5.5022421443079017e-08   5.4737371894103930e-08   5.5022422295986098e-08   5.4737372715616806e-08   5.5022423237495823e-08   5.4737373622266897e-08   5.5022424275627450e-08   5.4737374621780777e-08   5.5022425420994864e-08   5.4737375726264260e-08   5.5022426684950034e-08   5.4737376943668028e-08   5.5022396352235218e-08   5.4737378287459176e-08   5.5299147968350963e-08   5.4691624213632241e-08   4.8323396847039838e-08   4.7662816340725265e-08   4.8284564524992965e-08   4.7975228858293487e-08   4.8284564301076007e-08   4.7975267166792593e-08   4.8284564098568534e-08   4.7975267026616733e-08   4.8284563914910344e-08   4.7975266901727780e-08   4.8284563749297377e-08   4.7975266788650761e-08   4.8284563601811564e-08   4.7975266687217705e-08   4.8284563467212344e-08   4.7975266596382038e-08   4.8284563347907959e-08   4.7975266514863554e-08   4.8284563239933876e-08   4.7975266442566241e-08   4.8284563144186774e-08   4.7975266378139095e-08   4.8284563058346338e-08   4.7975266321352021e-08   4.8284562982582205e-08   4.7975266271836110e-08   4.8284562915972666e-08   4.7975266228608253e-08   4.828456285809