<?xml version="1.0"?>
<VTKFile type="UnstructuredGrid"  version="0.1"  >
<UnstructuredGrid>
<Piece  NumberOfPoints="1089" NumberOfCells="2048">
<Points>
<DataArray  type="Float64"  NumberOfComponents="3"  format="ascii">0 0 0  0.03125 0 0  0.0625 0 0  0.09375 0 0  0.125 0 0  0.15625 0 0  0.1875 0 0  0.21875 0 0  0.25 0 0  0.28125 0 0  0.3125 0 0  0.34375 0 0  0.375 0 0  0.40625 0 0  0.4375 0 0  0.46875 0 0  0.5 0 0  0.53125 0 0  0.5625 0 0  0.59375 0 0  0.625 0 0  0.65625 0 0  0.6875 0 0  0.71875 0 0  0.75 0 0  0.78125 0 0  0.8125 0 0  0.84375 0 0  0.875 0 0  0.90625 0 0  0.9375 0 0  0.96875 0 0  1 0 0  0 0.03125 0  0.03125 0.03125 0  0.0625 0.03125 0  0.09375 0.03125 0  0.125 0.03125 0  0.15625 0.03125 0  0.1875 0.03125 0  0.21875 0.03125 0  0.25 0.03125 0  0.28125 0.03125 0  0.3125 0.03125 0  0.34375 0.03125 0  0.375 0.03125 0  0.40625 0.03125 0  0.4375 0.03125 0  0.46875 0.03125 0  0.5 0.03125 0  0.53125 0.03125 0  0.5625 0.03125 0  0.59375 0.03125 0  0.625 0.03125 0  0.65625 0.03125 0  0.6875 0.03125 0  0.71875 0.03125 0  0.75 0.03125 0  0.78125 0.03125 0  0.8125 0.03125 0  0.84375 0.03125 0  0.875 0.03125 0  0.90625 0.03125 0  0.9375 0.03125 0  0.96875 0.03125 0  1 0.03125 0  0 0.0625 0  0.03125 0.0625 0  0.0625 0.0625 0  0.09375 0.0625 0  0.125 0.0625 0  0.15625 0.0625 0  0.1875 0.0625 0  0.21875 0.0625 0  0.25 0.0625 0  0.28125 0.0625 0  0.3125 0.0625 0  0.34375 0.0625 0  0.375 0.0625 0  0.40625 0.0625 0  0.4375 0.0625 0  0.46875 0.0625 0  0.5 0.0625 0  0.53125 0.0625 0  0.5625 0.0625 0  0.59375 0.0625 0  0.625 0.0625 0  0.65625 0.0625 0  0.6875 0.0625 0  0.71875 0.0625 0  0.75 0.0625 0  0.78125 0.0625 0  0.8125 0.0625 0  0.84375 0.0625 0  0.875 0.0625 0  0.90625 0.0625 0  0.9375 0.0625 0  0.96875 0.0625 0  1 0.0625 0  0 0.09375 0  0.03125 0.09375 0  0.0625 0.09375 0  0.09375 0.09375 0  0.125 0.09375 0  0.15625 0.09375 0  0.1875 0.09375 0  0.21875 0.09375 0  0.25 0.09375 0  0.28125 0.09375 0  0.3125 0.09375 0  0.34375 0.09375 0  0.375 0.09375 0  0.40625 0.09375 0  0.4375 0.09375 0  0.46875 0.09375 0  0.5 0.09375 0  0.53125 0.09375 0  0.5625 0.09375 0  0.59375 0.09375 0  0.625 0.09375 0  0.65625 0.09375 0  0.6875 0.09375 0  0.71875 0.09375 0  0.75 0.09375 0  0.78125 0.09375 0  0.8125 0.09375 0  0.84375 0.09375 0  0.875 0.09375 0  0.90625 0.09375 0  0.9375 0.09375 0  0.96875 0.09375 0  1 0.09375 0  0 0.125 0  0.03125 0.125 0  0.0625 0.125 0  0.09375 0.125 0  0.125 0.125 0  0.15625 0.125 0  0.1875 0.125 0  0.21875 0.125 0  0.25 0.125 0  0.28125 0.125 0  0.3125 0.125 0  0.34375 0.125 0  0.375 0.125 0  0.40625 0.125 0  0.4375 0.125 0  0.46875 0.125 0  0.5 0.125 0  0.53125 0.125 0  0.5625 0.125 0  0.59375 0.125 0  0.625 0.125 0  0.65625 0.125 0  0.6875 0.125 0  0.71875 0.125 0  0.75 0.125 0  0.78125 0.125 0  0.8125 0.125 0  0.84375 0.125 0  0.875 0.125 0  0.90625 0.125 0  0.9375 0.125 0  0.96875 0.125 0  1 0.125 0  0 0.15625 0  0.03125 0.15625 0  0.0625 0.15625 0  0.09375 0.15625 0  0.125 0.15625 0  0.15625 0.15625 0  0.1875 0.15625 0  0.21875 0.15625 0  0.25 0.15625 0  0.28125 0.15625 0  0.3125 0.15625 0  0.34375 0.15625 0  0.375 0.15625 0  0.40625 0.15625 0  0.4375 0.15625 0  0.46875 0.15625 0  0.5 0.15625 0  0.53125 0.15625 0  0.5625 0.15625 0  0.59375 0.15625 0  0.625 0.15625 0  0.65625 0.15625 0  0.6875 0.15625 0  0.71875 0.15625 0  0.75 0.15625 0  0.78125 0.15625 0  0.8125 0.15625 0  0.84375 0.15625 0  0.875 0.15625 0  0.90625 0.15625 0  0.9375 0.15625 0  0.96875 0.15625 0  1 0.15625 0  0 0.1875 0  0.03125 0.1875 0  0.0625 0.1875 0  0.09375 0.1875 0  0.125 0.1875 0  0.15625 0.1875 0  0.1875 0.1875 0  0.21875 0.1875 0  0.25 0.1875 0  0.28125 0.1875 0  0.3125 0.1875 0  0.34375 0.1875 0  0.375 0.1875 0  0.40625 0.1875 0  0.4375 0.1875 0  0.46875 0.1875 0  0.5 0.1875 0  0.53125 0.1875 0  0.5625 0.1875 0  0.59375 0.1875 0  0.625 0.1875 0  0.65625 0.1875 0  0.6875 0.1875 0  0.71875 0.1875 0  0.75 0.1875 0  0.78125 0.1875 0  0.8125 0.1875 0  0.84375 0.1875 0  0.875 0.1875 0  0.90625 0.1875 0  0.9375 0.1875 0  0.96875 0.1875 0  1 0.1875 0  0 0.21875 0  0.03125 0.21875 0  0.0625 0.21875 0  0.09375 0.21875 0  0.125 0.21875 0  0.15625 0.21875 0  0.1875 0.21875 0  0.21875 0.21875 0  0.25 0.21875 0  0.28125 0.21875 0  0.3125 0.21875 0  0.34375 0.21875 0  0.375 0.21875 0  0.40625 0.21875 0  0.4375 0.21875 0  0.46875 0.21875 0  0.5 0.21875 0  0.53125 0.21875 0  0.5625 0.21875 0  0.59375 0.21875 0  0.625 0.21875 0  0.65625 0.21875 0  0.6875 0.21875 0  0.71875 0.21875 0  0.75 0.21875 0  0.78125 0.21875 0  0.8125 0.21875 0  0.84375 0.21875 0  0.875 0.21875 0  0.90625 0.21875 0  0.9375 0.21875 0  0.96875 0.21875 0  1 0.21875 0  0 0.25 0  0.03125 0.25 0  0.0625 0.25 0  0.09375 0.25 0  0.125 0.25 0  0.15625 0.25 0  0.1875 0.25 0  0.21875 0.25 0  0.25 0.25 0  0.28125 0.25 0  0.3125 0.25 0  0.34375 0.25 0  0.375 0.25 0  0.40625 0.25 0  0.4375 0.25 0  0.46875 0.25 0  0.5 0.25 0  0.53125 0.25 0  0.5625 0.25 0  0.59375 0.25 0  0.625 0.25 0  0.65625 0.25 0  0.6875 0.25 0  0.71875 0.25 0  0.75 0.25 0  0.78125 0.25 0  0.8125 0.25 0  0.84375 0.25 0  0.875 0.25 0  0.90625 0.25 0  0.9375 0.25 0  0.96875 0.25 0  1 0.25 0  0 0.28125 0  0.03125 0.28125 0  0.0625 0.28125 0  0.09375 0.28125 0  0.125 0.28125 0  0.15625 0.28125 0  0.1875 0.28125 0  0.21875 0.28125 0  0.25 0.28125 0  0.28125 0.28125 0  0.3125 0.28125 0  0.34375 0.28125 0  0.375 0.28125 0  0.40625 0.28125 0  0.4375 0.28125 0  0.46875 0.28125 0  0.5 0.28125 0  0.53125 0.28125 0  0.5625 0.28125 0  0.59375 0.28125 0  0.625 0.28125 0  0.65625 0.28125 0  0.6875 0.28125 0  0.71875 0.28125 0  0.75 0.28125 0  0.78125 0.28125 0  0.8125 0.28125 0  0.84375 0.28125 0  0.875 0.28125 0  0.90625 0.28125 0  0.9375 0.28125 0  0.96875 0.28125 0  1 0.28125 0  0 0.3125 0  0.03125 0.3125 0  0.0625 0.3125 0  0.09375 0.3125 0  0.125 0.3125 0  0.15625 0.3125 0  0.1875 0.3125 0  0.21875 0.3125 0  0.25 0.3125 0  0.28125 0.3125 0  0.3125 0.3125 0  0.34375 0.3125 0  0.375 0.3125 0  0.40625 0.3125 0  0.4375 0.3125 0  0.46875 0.3125 0  0.5 0.3125 0  0.53125 0.3125 0  0.5625 0.3125 0  0.59375 0.3125 0  0.625 0.3125 0  0.65625 0.3125 0  0.6875 0.3125 0  0.71875 0.3125 0  0.75 0.3125 0  0.78125 0.3125 0  0.8125 0.3125 0  0.84375 0.3125 0  0.875 0.3125 0  0.90625 0.3125 0  0.9375 0.3125 0  0.96875 0.3125 0  1 0.3125 0  0 0.34375 0  0.03125 0.34375 0  0.0625 0.34375 0  0.09375 0.34375 0  0.125 0.34375 0  0.15625 0.34375 0  0.1875 0.34375 0  0.21875 0.34375 0  0.25 0.34375 0  0.28125 0.34375 0  0.3125 0.34375 0  0.34375 0.34375 0  0.375 0.34375 0  0.40625 0.34375 0  0.4375 0.34375 0  0.46875 0.34375 0  0.5 0.34375 0  0.53125 0.34375 0  0.5625 0.34375 0  0.59375 0.34375 0  0.625 0.34375 0  0.65625 0.34375 0  0.6875 0.34375 0  0.71875 0.34375 0  0.75 0.34375 0  0.78125 0.34375 0  0.8125 0.34375 0  0.84375 0.34375 0  0.875 0.34375 0  0.90625 0.34375 0  0.9375 0.34375 0  0.96875 0.34375 0  1 0.34375 0  0 0.375 0  0.03125 0.375 0  0.0625 0.375 0  0.09375 0.375 0  0.125 0.375 0  0.15625 0.375 0  0.1875 0.375 0  0.21875 0.375 0  0.25 0.375 0  0.28125 0.375 0  0.3125 0.375 0  0.34375 0.375 0  0.375 0.375 0  0.40625 0.375 0  0.4375 0.375 0  0.46875 0.375 0  0.5 0.375 0  0.53125 0.375 0  0.5625 0.375 0  0.59375 0.375 0  0.625 0.375 0  0.65625 0.375 0  0.6875 0.375 0  0.71875 0.375 0  0.75 0.375 0  0.78125 0.375 0  0.8125 0.375 0  0.84375 0.375 0  0.875 0.375 0  0.90625 0.375 0  0.9375 0.375 0  0.96875 0.375 0  1 0.375 0  0 0.40625 0  0.03125 0.40625 0  0.0625 0.40625 0  0.09375 0.40625 0  0.125 0.40625 0  0.15625 0.40625 0  0.1875 0.40625 0  0.21875 0.40625 0  0.25 0.40625 0  0.28125 0.40625 0  0.3125 0.40625 0  0.34375 0.40625 0  0.375 0.40625 0  0.40625 0.40625 0  0.4375 0.40625 0  0.46875 0.40625 0  0.5 0.40625 0  0.53125 0.40625 0  0.5625 0.40625 0  0.59375 0.40625 0  0.625 0.40625 0  0.65625 0.40625 0  0.6875 0.40625 0  0.71875 0.40625 0  0.75 0.40625 0  0.78125 0.40625 0  0.8125 0.40625 0  0.84375 0.40625 0  0.875 0.40625 0  0.90625 0.40625 0  0.9375 0.40625 0  0.96875 0.40625 0  1 0.40625 0  0 0.4375 0  0.03125 0.4375 0  0.0625 0.4375 0  0.09375 0.4375 0  0.125 0.4375 0  0.15625 0.4375 0  0.1875 0.4375 0  0.21875 0.4375 0  0.25 0.4375 0  0.28125 0.4375 0  0.3125 0.4375 0  0.34375 0.4375 0  0.375 0.4375 0  0.40625 0.4375 0  0.4375 0.4375 0  0.46875 0.4375 0  0.5 0.4375 0  0.53125 0.4375 0  0.5625 0.4375 0  0.59375 0.4375 0  0.625 0.4375 0  0.65625 0.4375 0  0.6875 0.4375 0  0.71875 0.4375 0  0.75 0.4375 0  0.78125 0.4375 0  0.8125 0.4375 0  0.84375 0.4375 0  0.875 0.4375 0  0.90625 0.4375 0  0.9375 0.4375 0  0.96875 0.4375 0  1 0.4375 0  0 0.46875 0  0.03125 0.46875 0  0.0625 0.46875 0  0.09375 0.46875 0  0.125 0.46875 0  0.15625 0.46875 0  0.1875 0.46875 0  0.21875 0.46875 0  0.25 0.46875 0  0.28125 0.46875 0  0.3125 0.46875 0  0.34375 0.46875 0  0.375 0.46875 0  0.40625 0.46875 0  0.4375 0.46875 0  0.46875 0.46875 0  0.5 0.46875 0  0.53125 0.46875 0  0.5625 0.46875 0  0.59375 0.46875 0  0.625 0.46875 0  0.65625 0.46875 0  0.6875 0.46875 0  0.71875 0.46875 0  0.75 0.46875 0  0.78125 0.46875 0  0.8125 0.46875 0  0.84375 0.46875 0  0.875 0.46875 0  0.90625 0.46875 0  0.9375 0.46875 0  0.96875 0.46875 0  1 0.46875 0  0 0.5 0  0.03125 0.5 0  0.0625 0.5 0  0.09375 0.5 0  0.125 0.5 0  0.15625 0.5 0  0.1875 0.5 0  0.21875 0.5 0  0.25 0.5 0  0.28125 0.5 0  0.3125 0.5 0  0.34375 0.5 0  0.375 0.5 0  0.40625 0.5 0  0.4375 0.5 0  0.46875 0.5 0  0.5 0.5 0  0.53125 0.5 0  0.5625 0.5 0  0.59375 0.5 0  0.625 0.5 0  0.65625 0.5 0  0.6875 0.5 0  0.71875 0.5 0  0.75 0.5 0  0.78125 0.5 0  0.8125 0.5 0  0.84375 0.5 0  0.875 0.5 0  0.90625 0.5 0  0.9375 0.5 0  0.96875 0.5 0  1 0.5 0  0 0.53125 0  0.03125 0.53125 0  0.0625 0.53125 0  0.09375 0.53125 0  0.125 0.53125 0  0.15625 0.53125 0  0.1875 0.53125 0  0.21875 0.53125 0  0.25 0.53125 0  0.28125 0.53125 0  0.3125 0.53125 0  0.34375 0.53125 0  0.375 0.53125 0  0.40625 0.53125 0  0.4375 0.53125 0  0.46875 0.53125 0  0.5 0.53125 0  0.53125 0.53125 0  0.5625 0.53125 0  0.59375 0.53125 0  0.625 0.53125 0  0.65625 0.53125 0  0.6875 0.53125 0  0.71875 0.53125 0  0.75 0.53125 0  0.78125 0.531
[...]
<CellData  Scalars="f_519"> 
<DataArray  type="Float64"  Name="f_519"  format="ascii">4.7251612991200318e-06   4.7081273950608773e-06   4.7251594133841516e-06   4.7172609685803942e-06   4.7251576456594106e-06   4.7172592432564420e-06   4.7251561965763543e-06   4.7172578289467080e-06   4.7251550100891978e-06   4.7172566709467222e-06   4.7251540403052319e-06   4.7172557244686477e-06   4.7251532497183443e-06   4.7172549529066588e-06   4.7251526077483449e-06   4.7172543264163805e-06   4.7251520895687947e-06   4.7172538207682228e-06   4.7251516751345413e-06   4.7172534164029922e-06   4.7251513484183744e-06   4.7172530976838200e-06   4.7251510967824930e-06   4.7172528522815370e-06   4.7251509104956050e-06   4.7172526707069152e-06   4.7251507823514074e-06   4.7172525459340536e-06   4.7251507073948352e-06   4.7172524731400539e-06   4.7251506827251658e-06   4.7172524495072460e-06   4.7251507073907576e-06   4.7172524741244417e-06   4.7251507823433741e-06   4.7172525479384240e-06   4.7251509104821778e-06   4.7172526738101602e-06   4.7251510967645622e-06   4.7172528566048931e-06   4.7251513483946845e-06   4.7172531033917336e-06   4.7251516751038888e-06   4.7172534237171767e-06   4.7251520895308273e-06   4.7172538299711858e-06   4.7251526077012872e-06   4.7172543378643950e-06   4.7251532496592163e-06   4.7172549670443739e-06   4.7251540402331062e-06   4.7172557418423793e-06   4.7251550100003805e-06   4.7172566922280752e-06   4.7251561964673225e-06   4.7172578549549970e-06   4.7251576455263824e-06   4.7172592750041609e-06   4.7251594132215103e-06   4.7172610072901200e-06   4.7251611827384866e-06   4.7172631188162204e-06   4.7319745439199085e-06   4.7149155109665367e-06   4.3794867548965625e-06   4.3309105651928216e-06   4.3773518690766019e-06   4.3548570257725685e-06   4.3773505627070233e-06   4.3548576475540898e-06   4.3773494931322890e-06   4.3548566826670018e-06   4.3773486189765642e-06   4.3548558943035536e-06   4.3773479064337456e-06   4.3548552519756092e-06   4.3773473279418361e-06   4.3548547308381445e-06   4.3773468611276759e-06   4.3548543107406643e-06   4.3773464879342292e-06   4.3548539754278694e-06   4.3773461939304333e-06   4.3548537119388894e-06   4.3773459677383891e-06   4.3548535100723694e-06   4.3773458006210095e-06   4.3548533620324698e-06   4.3773456861071085e-06   4.3548532620825185e-06   4.3773456197660397e-06   4.3548532063591236e-06   4.3773455990360814e-06   4.3548531927104108e-06   4.3773456231129845e-06   4.3548532206115414e-06   4.3773456929270612e-06   4.3548532911313965e-06   4.3773458111846302e-06   4.3548534070097871e-06   4.3773459824506475e-06   4.3548535727163300e-06   4.3773462133580470e-06   4.3548537946730705e-06   4.3773465128337080e-06   4.3548540814517762e-06   4.3773468924592086e-06   4.3548544441478207e-06   4.3773473669161429e-06   4.3548548967935067e-06   4.3773479545593260e-06   4.3548554568961064e-06   4.3773486781145614e-06   4.3548561461114903e-06   4.3773495655705857e-06   4.3548569911089911e-06   4.3773506512469588e-06   4.3548580245586824e-06   4.3773519771401539e-06   4.3548592864378376e-06   4.3773535945248451e-06   4.3548608255519014e-06   4.3773555659619375e-06   4.3548627014313360e-06   4.3773550702758681e-06   4.3548649866259466e-06   4.3988227383436771e-06   4.3503079800041549e-06   3.7305164553017328e-06   3.6577523321975808e-06   3.7267908936138036e-06   3.6931221178703098e-06   3.7267900961602084e-06   3.6931270322508213e-06   3.7267894448056963e-06   3.6931265443252293e-06   3.7267889143708957e-06   3.6931261478548573e-06   3.7267884843278926e-06   3.6931258274821075e-06   3.7267881380429454e-06   3.6931255708432040e-06   3.7267878621276727e-06   3.6931253679967203e-06   3.7267876459126518e-06   3.6931252110959649e-06   3.7267874810218855e-06   3.6931250940696359e-06   3.7267873610994644e-06   3.6931250124050032e-06   3.7267872814831090e-06   3.6931249629323097e-06   3.7267872391145642e-06   3.6931249437513710e-06   3.7267872323375531e-06   3.6931249540976861e-06   3.7267872609046536e-06   3.6931249943968282e-06   3.7267873259078547e-06   3.6931250661822374e-06   3.7267874298786871e-06   3.6931251722544882e-06   3.7267875768176759e-06   3.6931253166984085e-06   3.7267877724265393e-06   3.6931255051070852e-06   3.7267880242487043e-06   3.6931257447718999e-06   3.7267883420505246e-06   3.6931260449582766e-06   3.7267887381061697e-06   3.6931264172669851e-06   3.7267892277438284e-06   3.6931268761193079e-06   3.7267898298828788e-06   3.6931274392410516e-06   3.7267905678394925e-06   3.6931281284338844e-06   3.7267914701331051e-06   3.6931289703272975e-06   3.7267925716761380e-06   3.6931299975096654e-06   3.7267939150665921e-06   3.6931312496889118e-06   3.7267955522665409e-06   3.6931327753141224e-06   3.7267975465916274e-06   3.6931346333786068e-06   3.7267928209222557e-06   3.6931368957529830e-06   3.7593900818989326e-06   3.6868473326476522e-06   2.8770506805230206e-06   2.7911349348568913e-06   2.8725185466238946e-06   2.8327993859657531e-06   2.8725182280783786e-06   2.8328098849331962e-06   2.8725179699352085e-06   2.8328098289085820e-06   2.8725177622100869e-06   2.8328097869128236e-06   2.8725175968740210e-06   2.8328097572949512e-06   2.8725174675241486e-06   2.8328097389401004e-06   2.8725173691625582e-06   2.8328097311223535e-06   2.8725172979822804e-06   2.8328097335449173e-06   2.8725172512259948e-06   2.8328097462968454e-06   2.8725172271015041e-06   2.8328097698676832e-06   2.8725172246530415e-06   2.8328098051823777e-06   2.8725172438027047e-06   2.8328098535930555e-06   2.8725172852852328e-06   2.8328099169848403e-06   2.8725173507056526e-06   2.8328099977986686e-06   2.8725174425983809e-06   2.8328100991637608e-06   2.8725175645031848e-06   2.8328102250034863e-06   2.8725177211577923e-06   2.8328103801808646e-06   2.8725179185988316e-06   2.8328105706995800e-06   2.8725181644752116e-06   2.8328108039333601e-06   2.8725184682966526e-06   2.8328110888902606e-06   2.8725188418143833e-06   2.8328114366019920e-06   2.8725192994652445e-06   2.8328118605155399e-06   2.8725198589609968e-06   2.8328123770211526e-06   2.8725205419326001e-06   2.8328130061108942e-06   2.8725213748115298e-06   2.8328137720934017e-06   2.8725223897938518e-06   2.8328147046152294e-06   2.8725236261374675e-06   2.8328158397309468e-06   2.8725251316706936e-06   2.8328172213559799e-06   2.8725269646255635e-06   2.8328189029129520e-06   2.8725166882429892e-06   2.8328209494508103e-06   2.9110248350594047e-06   2.8255394381765005e-06   1.9490218580908013e-06   1.8629930160036798e-06   1.9445900489254829e-06   1.9048651671326171e-06   1.9445901063762180e-06   1.9048816924871115e-06   1.9445901565608267e-06   1.9048819575461550e-06   1.9445902014170069e-06   1.9048821786377522e-06   1.9445902427015757e-06   1.9048823643162081e-06   1.9445902819850478e-06   1.9048825217625164e-06   1.9445903207977776e-06   1.9048826570635299e-06   1.9445903606341797e-06   1.9048827754631746e-06   1.9445904030411370e-06   1.9048828815283080e-06   1.9445904496691132e-06   1.9048829793714785e-06   1.9445905022992572e-06   1.9048830727642702e-06   1.9445905629847430e-06   1.9048831653278714e-06   1.9445906340675946e-06   1.9048832606382637e-06   1.9445907182898818e-06   1.9048833623877947e-06   1.9445908189162973e-06   1.9048834745057911e-06   1.9445909398397216e-06   1.9048836013315311e-06   1.9445910857339762e-06   1.9048837477674692e-06   1.9445912622512997e-06   1.9048839194853130e-06   1.9445914762015129e-06   1.9048841231156681e-06   1.9445917358727914e-06   1.9048843665468138e-06   1.9445920512995185e-06   1.9048846591752783e-06   1.9445924346935661e-06   1.9048850123345389e-06   1.9445929008742325e-06   1.9048854396842624e-06   1.9445934678704874e-06   1.9048859577440930e-06   1.9445941576183144e-06   1.9048865865604480e-06   1.9445949967995856e-06   1.9048873504483579e-06   1.9445960178578189e-06   1.9048882789502657e-06   1.9445972602968175e-06   1.9048894079894757e-06   1.9445987721675586e-06   1.9048907812216036e-06   1.9445824694066578e-06   1.9048924517644671e-06   1.9828829162041222e-06   1.8975106157474906e-06   1.0877139636146517e-06   1.0146277691570874e-06   1.0842741026271148e-06   1.0505890344528776e-06   1.0842743759098847e-06   1.0506111105116930e-06   1.0842746025954287e-06   1.0506115369495596e-06   1.0842747914598903e-06   1.0506118897064159e-06   1.0842749497991008e-06   1.0506121824270987e-06   1.0842750837447377e-06   1.0506124264353149e-06   1.0842751984695472e-06   1.0506126311623183e-06   1.0842752984084834e-06   1.0506128045291078e-06   1.0842753874359599e-06   1.0506129532510136e-06   1.0842754689908230e-06   1.0506130830678987e-06   1.0842755462313499e-06   1.0506131990087118e-06   1.0842756221424644e-06   1.0506133055494258e-06   1.0842756996542950e-06   1.0506134068125721e-06   1.0842757817677289e-06   1.0506135067173848e-06   1.0842758716685504e-06   1.0506136091352403e-06   1.0842759728236906e-06   1.0506137180111543e-06   1.0842760891438566e-06   1.0506138375646492e-06   1.0842762251331938e-06   1.0506139724264320e-06   1.0842763860471152e-06   1.0506141278067106e-06   1.0842765781135815e-06   1.0506143097096580e-06   1.0842768087672970e-06   1.0506145251753244e-06   1.0842770869152776e-06   1.0506147825331289e-06   1.0842774233231296e-06   1.0506150917500739e-06   1.0842778310011550e-06   1.0506154647702491e-06   1.0842783257196328e-06   1.0506159160403222e-06   1.0842789266073810e-06   1.0506164629880253e-06   1.0842796569166151e-06   1.0506171267891118e-06   1.0842805448800828e-06   1.0506179331020011e-06   1.0842816248521759e-06   1.0506189131305028e-06   1.0842597374966121e-06   1.0506201047678674e-06   1.1162655188599990e-06   1.0440448409689171e-06   4.2425331625915811e-07   3.7519511270129529e-07   4.2254601174609104e-07   4.0002678508662532e-07   4.2254630784931425e-07   4.0005309113713112e-07   4.2254655235285759e-07   4.0005349468134616e-07   4.2254675471004338e-07   4.0005382762549688e-07   4.2254692274190085e-07   4.0005410284421772e-07   4.2254706295895958e-07   4.0005433098758189e-07   4.2254718077792085e-07   4.0005452087457991e-07   4.2254728075515223e-07   4.0005467985155850e-07   4.2254736675664019e-07   4.0005481406703586e-07   4.2254744211402585e-07   4.0005492870822820e-07   4.2254750973065358e-07   4.0005502821239458e-07   4.2254757223628404e-07   4.0005511643525578e-07   4.2254763203754889e-07   4.0005519677490766e-07   4.2254769145761338e-07   4.0005527234457835e-07   4.2254775278105107e-07   4.0005534607030310e-07   4.2254781838823645e-07   4.0005542080366397e-07   4.2254789081642240e-07   4.0005549943139957e-07   4.2254797286703302e-07   4.0005558499034840e-07   4.2254806770822130e-07   4.0005568079813209e-07   4.2254817901523621e-07   4.0005579056119885e-07   4.2254831109206014e-07   4.0005591851873400e-07   4.2254846904556443e-07   4.0005606962232943e-07   4.2254865897974452e-07   4.0005624971285932e-07   4.2254888825017338e-07   4.0005646576540199e-07   4.2254916571732618e-07   4.0005672612712920e-07   4.2254950211826150e-07   4.0005704087083590e-07   4.2254991045953372e-07   4.0005742217175961e-07   4.2255040654286270e-07   4.0005788477039282e-07   4.2255100954430008e-07   4.0005844657088705e-07   4.2252482958536837e-07   4.0005912930011009e-07   4.4310728586030823e-07   3.9507454136727704e-07   5.9645785288368414e-08   4.2042872108182387e-08   6.0147879548903848e-08   5.2220624149416434e-08   6.0148001983894222e-08   5.2249195487146740e-08   6.0148102894231823e-08   5.2249395354951536e-08   6.0148186181568821e-08   5.2249560027988728e-08   6.0148255068603292e-08   5.2249695872377880e-08   6.0148312217852940e-08   5.2249808140483604e-08   6.0148359839473981e-08   5.2249901177364616e-08   6.0148399775916043e-08   5.2249978578778845e-08   6.0148433571322902e-08   5.2250043342157356e-08   6.0148462533903818e-08   5.2250097968575825e-08   6.0148487782705874e-08   5.2250144570923501e-08   6.0148510293780845e-08   5.2250184953616917e-08   6.0148530939333989e-08   5.2250220678851768e-08   6.0148550515915950e-08   5.2250253124959329e-08   6.0148569782704371e-08   5.2250283549720653e-08   6.0148589484103162e-08   5.2250313128498113e-08   6.0148610381880747e-08   5.2250343006473947e-08   6.0148633284307387e-08   5.2250374338832583e-08   6.0148659076737822e-08   5.2250408337215469e-08   6.0148688757702032e-08   5.2250446317548666e-08   6.0148723475007030e-08   5.2250489747546666e-08   6.0148764571797819e-08   5.2250540307134565e-08   6.0148813636339366e-08   5.2250599950846414e-08   6.0148872567200780e-08   5.2250670988365573e-08   6.0148943643688669e-08   5.2250756165455019e-08   6.0149029614944124e-08   5.2250858777767109e-08   6.0149133806832285e-08   5.2250982791616349e-08   6.0149260249917106e-08   5.2251133006694791e-08   6.0149413833591442e-08   5.2251315230595853e-08   6.0120886772238995e-08   5.2251536515506463e-08   6.5890455984066440e-08   4.9399562125958231e-08   4.9399562120198593e-08   6.5890455978249864e-08   5.2251536511734573e-08   6.0120886767304326e-08   5.2251315227583387e-08   6.0149413828062381e-08   5.2251133002677625e-08   6.0149260243985400e-08   5.2250982788320776e-08   6.0149133801179293e-08   5.2250858773641152e-08   6.0149029609598512e-08   5.2250756162264789e-08   6.0148943637653215e-08   5.2250670984140757e-08   6.0148872561183816e-08   5.2250599947640633e-08   6.0148813630454141e-08   5.2250540302894490e-08   6.0148764566105043e-08   5.2250489743077628e-08   6.0148723469495797e-08   5.2250446313074234e-08   6.0148688752442103e-08   5.2250408334266841e-08   6.0148659071689175e-08   5.2250374336200348e-08   6.0148633278119705e-08   5.2250343001838195e-08   6.0148610375956122e-08   5.2250313125858129e-08   6.0148589478824783e-08   5.2250283544050402e-08   6.0148569776948187e-08   5.2250253119540495e-08   6.0148550511003278e-08   5.2250220673537576e-08   6.0148530933267711e-08   5.2250184949799723e-08   6.0148510288374671e-08   5.2250144566807827e-08   6.0148487777027841e-08   5.2250097965170607e-08   6.0148462528558802e-08   5.2250043337688834e-08   6.0148433565597422e-08   5.2249978574417637e-08   6.0148399771028980e-08   5.2249901173157463e-08   6.0148359834299285e-08   5.2249808136566314e-08   6.0148312211733220e-08   5.2249695867405188e-08   6.0148255062961324e-08   5.2249560024124941e-08   6.0148186176816675e-08   5.2249395350277105e-08   6.0148102888797551e-08   5.2249195483222754e-08   6.0148001978677187e-08   5.2220624144777420e-08   6.0147879542760066e-08   4.2042872103520860e-08   5.9645785283534463e-08   3.9507454135321212e-07   4.4310728584432355e-07   4.0005912928392493e-07   4.2252482957024693e-07   4.0005844655972490e-07   4.2255100953243579e-07   4.0005788476127822e-07   4.2255040652689179e-07   4.0005742215618717e-07   4.2254991044532665e-07   4.0005704085627181e-07   4.2254950210587788e-07   4.0005672611470777e-07   4.2254916570359371e-07   4.0005646575192394e-07   4.2254888823643810e-07   4.0005624970109848e-07   4.2254865896660381e-07   4.0005606960808864e-07   4.2254846903056395e-07   4.0005591850607578e-07   4.2254831107899895e-07   4.0005579055069410e-07   4.2254817900244718e-07   4.0005568078900430e-07   4.2254806769482765e-07   4.0005558497960876e-07   4.2254797285043176e-07   4.0005549941469137e-07   4.2254789080343850e-07   4.0005542079020445e-07   4.2254781837433293e-07   4.0005534606204787e-07   4.2254775276233117e-07   4.0005527233235926e-07   4.2254769143762685e-07   4.0005519676236289e-07   4.2254763202671078e-07   4.0005511642008595e-07   4.2254757222279271e-07   4.0005502820055545e-07   4.2254750971960499e-07   4.0005492869594664e-07   4.2254744209834531e-07   4.0005481405314537e-07   4.2254736674207742e-07   4.0005467983932629e-07   4.2254728073899110e-07   4.0005452086177844e-07   4.2254718076036620e-07   4.0005433097499842e-07   4.2254706294474113e-07   4.0005410283237858e-07   4.2254692273029178e-07   4.0005382761114586e-07   4.2254675469319627e-07   4.0005349466829492e-07   4.2254655233710071e-07   4.0005309112273669e-07   4.2254630783639890e-07   4.0002678507899593e-07   4.2254601173123943e-07   3.7519511268517705e-07   4.2425331624372956e-07   1.0440448409506747e-06   1.1162655188364326e-06   1.0506201047483708e-06   1.0842597374728594e-06   1.0506189131109417e-06   1.0842816248254876e-06   1.0506179330828562e-06   1.0842805448568859e-06   1.0506171267664979e-06   1.0842796568935317e-06   1.0506164629652452e-06   1.0842789265884790e-06   1.0506159160154178e-06   1.0842783256962361e-06   1.0506154647512690e-06   1.0842778309815676e-06   1.0506150917273677e-06   1.0842774233008281e-06   1.0506147825157694e-06   1.0842770868939931e-06   1.0506145251534587e-06   1.0842768087418900e-06   1.0506143096869423e-06   1.0842765780939102e-06   1.0506141277809409e-06   1.0842763860288957e-06   1.0506139724031547e-06   1.0842762251120840e-06   1.0506138375442357e-06   1.0842760891211152e-06   1.0506137179933533e-06   1.0842759727993389e-06   1.0506136091166829e-06   1.0842758716442645e-06   1.0506135066972680e-06   1.0842757817458604e-06   1.0506134067876073e-06   1.0842756996354735e-06   1.0506133055265638e-06   1.0842756221163635e-06   1.0506131989833529e-06   1.0842755462105942e-06   1.0506130830490244e-06   1.0842754689698547e-06   1.0506129532317806e-06   1.0842753874150435e-06   1.0506128045141048e-06   1.0842752983867962e-06   1.0506126311426267e-06   1.0842751984451164e-06   1.0506124264122511e-06   1.0842750837221948e-06   1.0506121824054453e-06   1.0842749497792887e-06   1.0506118896846434e-06   1.0842747914384093e-06   1.0506115369279035e-06   1.0842746025768446e-06   1.0506111104858524e-06   1.0842743758871775e-06   1.0505890344276930e-06   1.0842741026067149e-06   1.0146277691342990e-06   1.0877139635961491e-06   1.8975106157275877e-06   1.9828829161798488e-06   1.9048924517403132e-06   1.9445824693768257e-06   1.9048907811928953e-06   1.9445987721472175e-06   1.9048894079607094e-06   1.9445972602768567e-06   1.9048882789213855e-06   1.9445960178345784e-06   1.9048873504213566e-06   1.9445949967754850e-06   1.9048865865410372e-06   1.9445941575923440e-06   1.9048859577184844e-06   1.9445934678428216e-06   1.9048854396580120e-06   1.9445929008504466e-06   1.9048850123110102e-06   1.9445924346683516e-06   1.9048846591508145e-06   1.9445920512768426e-06   1.9048843665218468e-06   1.9445917358461662e-06   1.9048841230877264e-06   1.9445914761791479e-06   1.9048839194592426e-06   1.9445912622205685e-06   1.9048837477451749e-06   1.9445910857120275e-06   1.9048836013114156e-06   1.9445909398151742e-06   1.9048834744804144e-06   1.9445908188905068e-06   1.9048833623652603e-06   1.9445907182661962e-06   1.9048832606138935e-06   1.9445906340327604e-06   1.9048831653048743e-06   1.9445905629586395e-06   1.9048830727386008e-06   1.9445905022736247e-06   1.9048829793520703e-06   1.9445904496415571e-06   1.9048828815054894e-06   1.9445904030222617e-06   1.9048827754437839e-06   1.9445903606086560e-06   1.9048826570426515e-06   1.9445903207695256e-06   1.9048825217391605e-06   1.9445902819543853e-06   1.9048823642899933e-06   1.9445902426722934e-06   1.9048821786109599e-06   1.9445902013988025e-06   1.9048819575229216e-06   1.9445901565336967e-06   1.9048816924614333e-06   1.9445901063479365e-06   1.9048651671031361e-06   1.9445900489029895e-06   1.8629930159754217e-06   1.9490218580676536e-06   2.8255394381599567e-06   2.9110248350392648e-06   2.8328209494291661e-06   2.8725166882159777e-06   2.8328189028924894e-06   2.8725269646025615e-06   2.8328172213337656e-06   2.8725251316483015e-06   2.8328158397156748e-06   2.8725236261128269e-06   2.8328147045950247e-06   2.8725223897651226e-06   2.8328137720829201e-06   2.8725213747856902e-06   2.8328130060882572e-06   2.8725205419068495e-06   2.8328123770046334e-06   2.8725198589357171e-06   2.8328118604943429e-06   2.8725192994406069e-06   2.8328114365885373e-06   2.8725188417862440e-06   2.8328110888737774e-06   2.8725184682697161e-06   2.8328108039051895e-06   2.8725181644494351e-06   2.8328105706789933e-06   2.8725179185769040e-06   2.832810380163