<?xml version="1.0"?>
<VTKFile type="UnstructuredGrid"  version="0.1"  >
<UnstructuredGrid>
<Piece  NumberOfPoints="81" NumberOfCells="128">
<Points>
<DataArray  type="Float64"  NumberOfComponents="3"  format="ascii">0 0 0  0.125 0 0  0.25 0 0  0.375 0 0  0.5 0 0  0.625 0 0  0.75 0 0  0.875 0 0  1 0 0  0 0.125 0  0.125 0.125 0  0.25 0.125 0  0.375 0.125 0  0.5 0.125 0  0.625 0.125 0  0.75 0.125 0  0.875 0.125 0  1 0.125 0  0 0.25 0  0.125 0.25 0  0.25 0.25 0  0.375 0.25 0  0.5 0.25 0  0.625 0.25 0  0.75 0.25 0  0.875 0.25 0  1 0.25 0  0 0.375 0  0.125 0.375 0  0.25 0.375 0  0.375 0.375 0  0.5 0.375 0  0.625 0.375 0  0.75 0.375 0  0.875 0.375 0  1 0.375 0  0 0.5 0  0.125 0.5 0  0.25 0.5 0  0.375 0.5 0  0.5 0.5 0  0.625 0.5 0  0.75 0.5 0  0.875 0.5 0  1 0.5 0  0 0.625 0  0.125 0.625 0  0.25 0.625 0  0.375 0.625 0  0.5 0.625 0  0.625 0.625 0  0.75 0.625 0  0.875 0.625 0  1 0.625 0  0 0.75 0  0.125 0.75 0  0.25 0.75 0  0.375 0.75 0  0.5 0.75 0  0.625 0.75 0  0.75 0.75 0  0.875 0.75 0  1 0.75 0  0 0.875 0  0.125 0.875 0  0.25 0.875 0  0.375 0.875 0  0.5 0.875 0  0.625 0.875 0  0.75 0.875 0  0.875 0.875 0  1 0.875 0  0 1 0  0.125 1 0  0.25 1 0  0.375 1 0  0.5 1 0  0.625 1 0  0.75 1 0  0.875 1 0  1 1 0  </DataArray>
</Points>
<Cells>
<DataArray  type="UInt32"  Name="connectivity"  format="ascii">0 1 10  0 9 10  1 2 11  1 10 11  2 3 12  2 11 12  3 4 13  3 12 13  4 5 14  4 13 14  5 6 15  5 14 15  6 7 16  6 15 16  7 8 17  7 16 17  9 10 19  9 18 19  10 11 20  10 19 20  11 12 21  11 20 21  12 13 22  12 21 22  13 14 23  13 22 23  14 15 24  14 23 24  15 16 25  15 24 25  16 17 26  16 25 26  18 19 28  18 27 28  19 20 29  19 28 29  20 21 30  20 29 30  21 22 31  21 30 31  22 23 32  22 31 32  23 24 33  23 32 33  24 25 34  24 33 34  25 26 35  25 34 35  27 28 37  27 36 37  28 29 38  28 37 38  29 30 39  29 38 39  30 31 40  30 39 40  31 32 41  31 40 41  32 33 42  32 41 42  33 34 43  33 42 43  34 35 44  34 43 44  36 37 46  36 45 46  37 38 47  37 46 47  38 39 48  38 47 48  39 40 49  39 48 49  40 41 50  40 49 50  41 42 51  41 50 51  42 43 52  42 51 52  43 44 53  43 52 53  45 46 55  45 54 55  46 47 56  46 55 56  47 48 57  47 56 57  48 49 58  48 57 58  49 50 59  49 58 59  50 51 60  50 59 60  51 52 61  51 60 61  52 53 62  52 61 62  54 55 64  54 63 64  55 56 65  55 64 65  56 57 66  56 65 66  57 58 67  57 66 67  58 59 68  58 67 68  59 60 69  59 68 69  60 61 70  60 69 70  61 62 71  61 70 71  63 64 73  63 72 73  64 65 74  64 73 74  65 66 75  65 74 75  66 67 76  66 75 76  67 68 77  67 76 77  68 69 78  68 77 78  69 70 79  69 78 79  70 71 80  70 79 80  </DataArray>
<DataArray  type="UInt32"  Name="offsets"  format="ascii">3 6 9 12 15 18 21 24 27 30 33 36 39 42 45 48 51 54 57 60 63 66 69 72 75 78 81 84 87 90 93 96 99 102 105 108 111 114 117 120 123 126 129 132 135 138 141 144 147 150 153 156 159 162 165 168 171 174 177 180 183 186 189 192 195 198 201 204 207 210 213 216 219 222 225 228 231 234 237 240 243 246 249 252 255 258 261 264 267 270 273 276 279 282 285 288 291 294 297 300 303 306 309 312 315 318 321 324 327 330 333 336 339 342 345 348 351 354 357 360 363 366 369 372 375 378 381 384 </DataArray>
<DataArray  type="UInt8"  Name="types"  format="ascii">5 5 5 5 5 5 5 5 5 5 5 5 5 5 5 5 5 5 5 5 5 5 5 5 5 5 5 5 5 5 5 5 5 5 5 5 5 5 5 5 5 5 5 5 5 5 5 5 5 5 5 5 5 5 5 5 5 5 5 5 5 5 5 5 5 5 5 5 5 5 5 5 5 5 5 5 5 5 5 5 5 5 5 5 5 5 5 5 5 5 5 5 5 5 5 5 5 5 5 5 5 5 5 5 5 5 5 5 5 5 5 5 5 5 5 5 5 5 5 5 5 5 5 5 5 5 5 5 </DataArray>
</Cells>
<CellData  Scalars="f_403"> 
<DataArray  type="Float64"  Name="f_403"  format="ascii">1.6513793792520312e-02   1.5671376706944740e-02   1.6510238118623378e-02   1.6192774160544401e-02   1.6508671057000421e-02   1.6192116476947807e-02   1.6508241456521619e-02   1.6192028792476113e-02   1.6508670155472593e-02   1.6192453897804084e-02   1.6510235576936486e-02   1.6193667796555681e-02   1.6513648809988343e-02   1.6196458998174398e-02   1.6884137157819418e-02   1.6026860406212047e-02   3.4249349324694807e-03   2.5460009190374317e-03   3.4125062724357797e-03   3.0931737508229007e-03   3.4126591399877278e-03   3.0957611394134446e-03   3.4128471240270478e-03   3.0965132754951540e-03   3.4131921099170999e-03   3.0970220938834501e-03   3.4139182976334493e-03   3.0976178213115062e-03   3.4140880457794814e-03   3.0986875064737489e-03   3.7591351276089089e-03   2.9376277884659448e-03   2.9376277884652678e-03   3.7591351276084484e-03   3.0986875064731387e-03   3.4140880457788872e-03   3.0976178213107677e-03   3.4139182976326661e-03   3.0970220938827632e-03   3.4131921099164065e-03   3.0965132754940429e-03   3.4128471240262976e-03   3.0957611394125490e-03   3.4126591399872819e-03   3.0931737508220402e-03   3.4125062724350915e-03   2.5460009190363640e-03   3.4249349324688683e-03   1.6026860406211634e-02   1.6884510915515887e-02   1.6196458998174030e-02   1.6513688455500417e-02   1.6193667796555657e-02   1.6510273635167171e-02   1.6192453897803705e-02   1.6508707626897441e-02   1.6192028792476009e-02   1.6508278927946415e-02   1.6192116476947457e-02   1.6508709115231165e-02   1.6192774160543669e-02   1.6510277764135387e-02   1.5671376706941891e-02   1.6514167550215168e-02   1.6514167550215720e-02   1.5671376706944885e-02   1.6510277764136511e-02   1.6192774160544557e-02   1.6508709115232490e-02   1.6192116476947630e-02   1.6508278927947706e-02   1.6192028792476040e-02   1.6508707626898791e-02   1.6192453897803931e-02   1.6510273635168441e-02   1.6193667796555282e-02   1.6513688455501597e-02   1.6196458998174269e-02   1.6884510915514662e-02   1.6026860406211998e-02   3.4249349324694000e-03   2.5460009190376269e-03   3.4125062724358469e-03   3.0931737508228382e-03   3.4126591399878474e-03   3.0957611394133609e-03   3.4128471240271905e-03   3.0965132754949970e-03   3.4131921099169260e-03   3.0970220938833851e-03   3.4139182976335039e-03   3.0976178213113922e-03   3.4140880457795872e-03   3.0986875064737099e-03   3.7591351276088088e-03   2.9376277884657792e-03   2.9376277884654040e-03   3.7591351276082480e-03   3.0986875064731387e-03   3.4140880457787072e-03   3.0976178213106722e-03   3.4139182976326262e-03   3.0970220938828716e-03   3.4131921099162443e-03   3.0965132754941492e-03   3.4128471240263527e-03   3.0957611394126388e-03   3.4126591399871427e-03   3.0931737508221972e-03   3.4125062724350242e-03   2.5460009190363276e-03   3.4249349324688870e-03   1.6026860406211669e-02   1.6884137157819484e-02   1.6196458998174422e-02   1.6513648809986254e-02   1.6193667796555448e-02   1.6510235576934207e-02   1.6192453897803868e-02   1.6508670155470310e-02   1.6192028792476488e-02   1.6508241456519471e-02   1.6192116476947911e-02   1.6508671056998075e-02   1.6192774160545025e-02   1.6510238118621033e-02   1.5671376706941326e-02   1.6513793792518047e-02   </DataArray> 
</CellData> 
</Piece>
</UnstructuredGrid>
</VTKFile>