<?xml version="1.0"?>
<VTKFile type="UnstructuredGrid"  version="0.1"  >
<UnstructuredGrid>
<Piece  NumberOfPoints="1089" NumberOfCells="2048">
<Points>
<DataArray  type="Float64"  NumberOfComponents="3"  format="ascii">0 0 0  0.03125 0 0  0.0625 0 0  0.09375 0 0  0.125 0 0  0.15625 0 0  0.1875 0 0  0.21875 0 0  0.25 0 0  0.28125 0 0  0.3125 0 0  0.34375 0 0  0.375 0 0  0.40625 0 0  0.4375 0 0  0.46875 0 0  0.5 0 0  0.53125 0 0  0.5625 0 0  0.59375 0 0  0.625 0 0  0.65625 0 0  0.6875 0 0  0.71875 0 0  0.75 0 0  0.78125 0 0  0.8125 0 0  0.84375 0 0  0.875 0 0  0.90625 0 0  0.9375 0 0  0.96875 0 0  1 0 0  0 0.03125 0  0.03125 0.03125 0  0.0625 0.03125 0  0.09375 0.03125 0  0.125 0.03125 0  0.15625 0.03125 0  0.1875 0.03125 0  0.21875 0.03125 0  0.25 0.03125 0  0.28125 0.03125 0  0.3125 0.03125 0  0.34375 0.03125 0  0.375 0.03125 0  0.40625 0.03125 0  0.4375 0.03125 0  0.46875 0.03125 0  0.5 0.03125 0  0.53125 0.03125 0  0.5625 0.03125 0  0.59375 0.03125 0  0.625 0.03125 0  0.65625 0.03125 0  0.6875 0.03125 0  0.71875 0.03125 0  0.75 0.03125 0  0.78125 0.03125 0  0.8125 0.03125 0  0.84375 0.03125 0  0.875 0.03125 0  0.90625 0.03125 0  0.9375 0.03125 0  0.96875 0.03125 0  1 0.03125 0  0 0.0625 0  0.03125 0.0625 0  0.0625 0.0625 0  0.09375 0.0625 0  0.125 0.0625 0  0.15625 0.0625 0  0.1875 0.0625 0  0.21875 0.0625 0  0.25 0.0625 0  0.28125 0.0625 0  0.3125 0.0625 0  0.34375 0.0625 0  0.375 0.0625 0  0.40625 0.0625 0  0.4375 0.0625 0  0.46875 0.0625 0  0.5 0.0625 0  0.53125 0.0625 0  0.5625 0.0625 0  0.59375 0.0625 0  0.625 0.0625 0  0.65625 0.0625 0  0.6875 0.0625 0  0.71875 0.0625 0  0.75 0.0625 0  0.78125 0.0625 0  0.8125 0.0625 0  0.84375 0.0625 0  0.875 0.0625 0  0.90625 0.0625 0  0.9375 0.0625 0  0.96875 0.0625 0  1 0.0625 0  0 0.09375 0  0.03125 0.09375 0  0.0625 0.09375 0  0.09375 0.09375 0  0.125 0.09375 0  0.15625 0.09375 0  0.1875 0.09375 0  0.21875 0.09375 0  0.25 0.09375 0  0.28125 0.09375 0  0.3125 0.09375 0  0.34375 0.09375 0  0.375 0.09375 0  0.40625 0.09375 0  0.4375 0.09375 0  0.46875 0.09375 0  0.5 0.09375 0  0.53125 0.09375 0  0.5625 0.09375 0  0.59375 0.09375 0  0.625 0.09375 0  0.65625 0.09375 0  0.6875 0.09375 0  0.71875 0.09375 0  0.75 0.09375 0  0.78125 0.09375 0  0.8125 0.09375 0  0.84375 0.09375 0  0.875 0.09375 0  0.90625 0.09375 0  0.9375 0.09375 0  0.96875 0.09375 0  1 0.09375 0  0 0.125 0  0.03125 0.125 0  0.0625 0.125 0  0.09375 0.125 0  0.125 0.125 0  0.15625 0.125 0  0.1875 0.125 0  0.21875 0.125 0  0.25 0.125 0  0.28125 0.125 0  0.3125 0.125 0  0.34375 0.125 0  0.375 0.125 0  0.40625 0.125 0  0.4375 0.125 0  0.46875 0.125 0  0.5 0.125 0  0.53125 0.125 0  0.5625 0.125 0  0.59375 0.125 0  0.625 0.125 0  0.65625 0.125 0  0.6875 0.125 0  0.71875 0.125 0  0.75 0.125 0  0.78125 0.125 0  0.8125 0.125 0  0.84375 0.125 0  0.875 0.125 0  0.90625 0.125 0  0.9375 0.125 0  0.96875 0.125 0  1 0.125 0  0 0.15625 0  0.03125 0.15625 0  0.0625 0.15625 0  0.09375 0.15625 0  0.125 0.15625 0  0.15625 0.15625 0  0.1875 0.15625 0  0.21875 0.15625 0  0.25 0.15625 0  0.28125 0.15625 0  0.3125 0.15625 0  0.34375 0.15625 0  0.375 0.15625 0  0.40625 0.15625 0  0.4375 0.15625 0  0.46875 0.15625 0  0.5 0.15625 0  0.53125 0.15625 0  0.5625 0.15625 0  0.59375 0.15625 0  0.625 0.15625 0  0.65625 0.15625 0  0.6875 0.15625 0  0.71875 0.15625 0  0.75 0.15625 0  0.78125 0.15625 0  0.8125 0.15625 0  0.84375 0.15625 0  0.875 0.15625 0  0.90625 0.15625 0  0.9375 0.15625 0  0.96875 0.15625 0  1 0.15625 0  0 0.1875 0  0.03125 0.1875 0  0.0625 0.1875 0  0.09375 0.1875 0  0.125 0.1875 0  0.15625 0.1875 0  0.1875 0.1875 0  0.21875 0.1875 0  0.25 0.1875 0  0.28125 0.1875 0  0.3125 0.1875 0  0.34375 0.1875 0  0.375 0.1875 0  0.40625 0.1875 0  0.4375 0.1875 0  0.46875 0.1875 0  0.5 0.1875 0  0.53125 0.1875 0  0.5625 0.1875 0  0.59375 0.1875 0  0.625 0.1875 0  0.65625 0.1875 0  0.6875 0.1875 0  0.71875 0.1875 0  0.75 0.1875 0  0.78125 0.1875 0  0.8125 0.1875 0  0.84375 0.1875 0  0.875 0.1875 0  0.90625 0.1875 0  0.9375 0.1875 0  0.96875 0.1875 0  1 0.1875 0  0 0.21875 0  0.03125 0.21875 0  0.0625 0.21875 0  0.09375 0.21875 0  0.125 0.21875 0  0.15625 0.21875 0  0.1875 0.21875 0  0.21875 0.21875 0  0.25 0.21875 0  0.28125 0.21875 0  0.3125 0.21875 0  0.34375 0.21875 0  0.375 0.21875 0  0.40625 0.21875 0  0.4375 0.21875 0  0.46875 0.21875 0  0.5 0.21875 0  0.53125 0.21875 0  0.5625 0.21875 0  0.59375 0.21875 0  0.625 0.21875 0  0.65625 0.21875 0  0.6875 0.21875 0  0.71875 0.21875 0  0.75 0.21875 0  0.78125 0.21875 0  0.8125 0.21875 0  0.84375 0.21875 0  0.875 0.21875 0  0.90625 0.21875 0  0.9375 0.21875 0  0.96875 0.21875 0  1 0.21875 0  0 0.25 0  0.03125 0.25 0  0.0625 0.25 0  0.09375 0.25 0  0.125 0.25 0  0.15625 0.25 0  0.1875 0.25 0  0.21875 0.25 0  0.25 0.25 0  0.28125 0.25 0  0.3125 0.25 0  0.34375 0.25 0  0.375 0.25 0  0.40625 0.25 0  0.4375 0.25 0  0.46875 0.25 0  0.5 0.25 0  0.53125 0.25 0  0.5625 0.25 0  0.59375 0.25 0  0.625 0.25 0  0.65625 0.25 0  0.6875 0.25 0  0.71875 0.25 0  0.75 0.25 0  0.78125 0.25 0  0.8125 0.25 0  0.84375 0.25 0  0.875 0.25 0  0.90625 0.25 0  0.9375 0.25 0  0.96875 0.25 0  1 0.25 0  0 0.28125 0  0.03125 0.28125 0  0.0625 0.28125 0  0.09375 0.28125 0  0.125 0.28125 0  0.15625 0.28125 0  0.1875 0.28125 0  0.21875 0.28125 0  0.25 0.28125 0  0.28125 0.28125 0  0.3125 0.28125 0  0.34375 0.28125 0  0.375 0.28125 0  0.40625 0.28125 0  0.4375 0.28125 0  0.46875 0.28125 0  0.5 0.28125 0  0.53125 0.28125 0  0.5625 0.28125 0  0.59375 0.28125 0  0.625 0.28125 0  0.65625 0.28125 0  0.6875 0.28125 0  0.71875 0.28125 0  0.75 0.28125 0  0.78125 0.28125 0  0.8125 0.28125 0  0.84375 0.28125 0  0.875 0.28125 0  0.90625 0.28125 0  0.9375 0.28125 0  0.96875 0.28125 0  1 0.28125 0  0 0.3125 0  0.03125 0.3125 0  0.0625 0.3125 0  0.09375 0.3125 0  0.125 0.3125 0  0.15625 0.3125 0  0.1875 0.3125 0  0.21875 0.3125 0  0.25 0.3125 0  0.28125 0.3125 0  0.3125 0.3125 0  0.34375 0.3125 0  0.375 0.3125 0  0.40625 0.3125 0  0.4375 0.3125 0  0.46875 0.3125 0  0.5 0.3125 0  0.53125 0.3125 0  0.5625 0.3125 0  0.59375 0.3125 0  0.625 0.3125 0  0.65625 0.3125 0  0.6875 0.3125 0  0.71875 0.3125 0  0.75 0.3125 0  0.78125 0.3125 0  0.8125 0.3125 0  0.84375 0.3125 0  0.875 0.3125 0  0.90625 0.3125 0  0.9375 0.3125 0  0.96875 0.3125 0  1 0.3125 0  0 0.34375 0  0.03125 0.34375 0  0.0625 0.34375 0  0.09375 0.34375 0  0.125 0.34375 0  0.15625 0.34375 0  0.1875 0.34375 0  0.21875 0.34375 0  0.25 0.34375 0  0.28125 0.34375 0  0.3125 0.34375 0  0.34375 0.34375 0  0.375 0.34375 0  0.40625 0.34375 0  0.4375 0.34375 0  0.46875 0.34375 0  0.5 0.34375 0  0.53125 0.34375 0  0.5625 0.34375 0  0.59375 0.34375 0  0.625 0.34375 0  0.65625 0.34375 0  0.6875 0.34375 0  0.71875 0.34375 0  0.75 0.34375 0  0.78125 0.34375 0  0.8125 0.34375 0  0.84375 0.34375 0  0.875 0.34375 0  0.90625 0.34375 0  0.9375 0.34375 0  0.96875 0.34375 0  1 0.34375 0  0 0.375 0  0.03125 0.375 0  0.0625 0.375 0  0.09375 0.375 0  0.125 0.375 0  0.15625 0.375 0  0.1875 0.375 0  0.21875 0.375 0  0.25 0.375 0  0.28125 0.375 0  0.3125 0.375 0  0.34375 0.375 0  0.375 0.375 0  0.40625 0.375 0  0.4375 0.375 0  0.46875 0.375 0  0.5 0.375 0  0.53125 0.375 0  0.5625 0.375 0  0.59375 0.375 0  0.625 0.375 0  0.65625 0.375 0  0.6875 0.375 0  0.71875 0.375 0  0.75 0.375 0  0.78125 0.375 0  0.8125 0.375 0  0.84375 0.375 0  0.875 0.375 0  0.90625 0.375 0  0.9375 0.375 0  0.96875 0.375 0  1 0.375 0  0 0.40625 0  0.03125 0.40625 0  0.0625 0.40625 0  0.09375 0.40625 0  0.125 0.40625 0  0.15625 0.40625 0  0.1875 0.40625 0  0.21875 0.40625 0  0.25 0.40625 0  0.28125 0.40625 0  0.3125 0.40625 0  0.34375 0.40625 0  0.375 0.40625 0  0.40625 0.40625 0  0.4375 0.40625 0  0.46875 0.40625 0  0.5 0.40625 0  0.53125 0.40625 0  0.5625 0.40625 0  0.59375 0.40625 0  0.625 0.40625 0  0.65625 0.40625 0  0.6875 0.40625 0  0.71875 0.40625 0  0.75 0.40625 0  0.78125 0.40625 0  0.8125 0.40625 0  0.84375 0.40625 0  0.875 0.40625 0  0.90625 0.40625 0  0.9375 0.40625 0  0.96875 0.40625 0  1 0.40625 0  0 0.4375 0  0.03125 0.4375 0  0.0625 0.4375 0  0.09375 0.4375 0  0.125 0.4375 0  0.15625 0.4375 0  0.1875 0.4375 0  0.21875 0.4375 0  0.25 0.4375 0  0.28125 0.4375 0  0.3125 0.4375 0  0.34375 0.4375 0  0.375 0.4375 0  0.40625 0.4375 0  0.4375 0.4375 0  0.46875 0.4375 0  0.5 0.4375 0  0.53125 0.4375 0  0.5625 0.4375 0  0.59375 0.4375 0  0.625 0.4375 0  0.65625 0.4375 0  0.6875 0.4375 0  0.71875 0.4375 0  0.75 0.4375 0  0.78125 0.4375 0  0.8125 0.4375 0  0.84375 0.4375 0  0.875 0.4375 0  0.90625 0.4375 0  0.9375 0.4375 0  0.96875 0.4375 0  1 0.4375 0  0 0.46875 0  0.03125 0.46875 0  0.0625 0.46875 0  0.09375 0.46875 0  0.125 0.46875 0  0.15625 0.46875 0  0.1875 0.46875 0  0.21875 0.46875 0  0.25 0.46875 0  0.28125 0.46875 0  0.3125 0.46875 0  0.34375 0.46875 0  0.375 0.46875 0  0.40625 0.46875 0  0.4375 0.46875 0  0.46875 0.46875 0  0.5 0.46875 0  0.53125 0.46875 0  0.5625 0.46875 0  0.59375 0.46875 0  0.625 0.46875 0  0.65625 0.46875 0  0.6875 0.46875 0  0.71875 0.46875 0  0.75 0.46875 0  0.78125 0.46875 0  0.8125 0.46875 0  0.84375 0.46875 0  0.875 0.46875 0  0.90625 0.46875 0  0.9375 0.46875 0  0.96875 0.46875 0  1 0.46875 0  0 0.5 0  0.03125 0.5 0  0.0625 0.5 0  0.09375 0.5 0  0.125 0.5 0  0.15625 0.5 0  0.1875 0.5 0  0.21875 0.5 0  0.25 0.5 0  0.28125 0.5 0  0.3125 0.5 0  0.34375 0.5 0  0.375 0.5 0  0.40625 0.5 0  0.4375 0.5 0  0.46875 0.5 0  0.5 0.5 0  0.53125 0.5 0  0.5625 0.5 0  0.59375 0.5 0  0.625 0.5 0  0.65625 0.5 0  0.6875 0.5 0  0.71875 0.5 0  0.75 0.5 0  0.78125 0.5 0  0.8125 0.5 0  0.84375 0.5 0  0.875 0.5 0  0.90625 0.5 0  0.9375 0.5 0  0.96875 0.5 0  1 0.5 0  0 0.53125 0  0.03125 0.53125 0  0.0625 0.53125 0  0.09375 0.53125 0  0.125 0.53125 0  0.15625 0.53125 0  0.1875 0.53125 0  0.21875 0.53125 0  0.25 0.53125 0  0.28125 0.53125 0  0.3125 0.53125 0  0.34375 0.53125 0  0.375 0.53125 0  0.40625 0.53125 0  0.4375 0.53125 0  0.46875 0.53125 0  0.5 0.53125 0  0.53125 0.53125 0  0.5625 0.53125 0  0.59375 0.53125 0  0.625 0.53125 0  0.65625 0.53125 0  0.6875 0.53125 0  0.71875 0.53125 0  0.75 0.53125 0  0.78125 0.531
[...]
<CellData  Scalars="f_809"> 
<DataArray  type="Float64"  Name="f_809"  format="ascii">1.3372705144788689e-11   2.7982874697791087e-11   1.3703294505161974e-11   2.8553848829640692e-11   1.3704451875824990e-11   2.8490623793778223e-11   1.3704458331437017e-11   2.8490273012183064e-11   1.3704458362759841e-11   2.8490271065568595e-11   1.3704458371570958e-11   2.8490271061580483e-11   1.3704458371321088e-11   2.8490271046603548e-11   1.3704458374609903e-11   2.8490271055926500e-11   1.3704458377671678e-11   2.8490271054850978e-11   1.3704458370263219e-11   2.8490271044747613e-11   1.3704458375216721e-11   2.8490271051235914e-11   1.3704458372326838e-11   2.8490271041444267e-11   1.3704458370572433e-11   2.8490271055396891e-11   1.3704458372589156e-11   2.8490271038107133e-11   1.3704458377373311e-11   2.8490271041335076e-11   1.3704458376500933e-11   2.8490271040858042e-11   1.3704458372600277e-11   2.8490271049259915e-11   1.3704458375083123e-11   2.8490271059519249e-11   1.3704458371698840e-11   2.8490271044790400e-11   1.3704458371958161e-11   2.8490271042713815e-11   1.3704458369724052e-11   2.8490271051853253e-11   1.3704458375741853e-11   2.8490271043029491e-11   1.3704458372582541e-11   2.8490271042000572e-11   1.3704458370603733e-11   2.8490271049048328e-11   1.3704458371495078e-11   2.8490271058564663e-11   1.3704458371156067e-11   2.8490271070083780e-11   1.3704458372561387e-11   2.8490271058685942e-11   1.3704458371300924e-11   2.8490271056886524e-11   1.3704457024476114e-11   2.8490270908378659e-11   1.3704214308094334e-11   2.8490245964996905e-11   1.3630884300870762e-11   2.8485765539241954e-11   1.1563577047769257e-11   2.6737949633980497e-11   1.2937462625926605e-10   1.6942185862546569e-10   1.3538298163724631e-10   1.7728051726794369e-10   1.3538163870557452e-10   1.7716142356333718e-10   1.3538163117370805e-10   1.7716054929972312e-10   1.3538163114296374e-10   1.7716054454704299e-10   1.3538163111835261e-10   1.7716054443613541e-10   1.3538163113932241e-10   1.7716054445177471e-10   1.3538163108125981e-10   1.7716054439630685e-10   1.3538163118613758e-10   1.7716054450669040e-10   1.3538163116282235e-10   1.7716054440868431e-10   1.3538163112733770e-10   1.7716054442977832e-10   1.3538163116933033e-10   1.7716054443269489e-10   1.3538163109496084e-10   1.7716054446982069e-10   1.3538163115176618e-10   1.7716054460997905e-10   1.3538163113414835e-10   1.7716054444922560e-10   1.3538163114022711e-10   1.7716054448257824e-10   1.3538163117061189e-10   1.7716054445440985e-10   1.3538163112247667e-10   1.7716054439451952e-10   1.3538163115041713e-10   1.7716054448557305e-10   1.3538163115124767e-10   1.7716054445783484e-10   1.3538163106571388e-10   1.7716054449662307e-10   1.3538163113815534e-10   1.7716054452058350e-10   1.3538163114725463e-10   1.7716054436633207e-10   1.3538163112987058e-10   1.7716054446729034e-10   1.3538163117057898e-10   1.7716054452153843e-10   1.3538163118974664e-10   1.7716054442181278e-10   1.3538163117905084e-10   1.7716054442897286e-10   1.3538163116292244e-10   1.7716054441437992e-10   1.3538162679458964e-10   1.7716054419786012e-10   1.3538083897029850e-10   1.7716050451307487e-10   1.3510651423679563e-10   1.7715336786282511e-10   1.2350579384148237e-10   1.6723050954087976e-10   3.5693026084045283e-10   4.1480496379936988e-10   3.7473941071521256e-10   4.3736632171727824e-10   3.7473580329140878e-10   4.3728150408995817e-10   3.7473578296117948e-10   4.3728024251764072e-10   3.7473578312959676e-10   4.3728023569514581e-10   3.7473578299701315e-10   4.3728023538813545e-10   3.7473578319345148e-10   4.3728023543367112e-10   3.7473578307087071e-10   4.3728023555193981e-10   3.7473578306719461e-10   4.3728023527061015e-10   3.7473578297453358e-10   4.3728023556452169e-10   3.7473578312135602e-10   4.3728023558672802e-10   3.7473578299106308e-10   4.3728023548142716e-10   3.7473578315363499e-10   4.3728023556288397e-10   3.7473578324903119e-10   4.3728023539207180e-10   3.7473578307060942e-10   4.3728023544838227e-10   3.7473578305420529e-10   4.3728023546829773e-10   3.7473578308990879e-10   4.3728023546685099e-10   3.7473578311476867e-10   4.3728023552744714e-10   3.7473578315019252e-10   4.3728023550746494e-10   3.7473578319403273e-10   4.3728023523734094e-10   3.7473578315915202e-10   4.3728023545879994e-10   3.7473578329017505e-10   4.3728023546974644e-10   3.7473578306249948e-10   4.3728023541644178e-10   3.7473578313229874e-10   4.3728023551986340e-10   3.7473578305465104e-10   4.3728023535195798e-10   3.7473578317182179e-10   4.3728023554351316e-10   3.7473578323128858e-10   4.3728023558864362e-10   3.7473578301385920e-10   4.3728023528649414e-10   3.7473577623482239e-10   4.3728023520775611e-10   3.7473455058251487e-10   4.3728018471874645e-10   3.7423055637535243e-10   4.3727110457425246e-10   3.4607631617198587e-10   4.1360548011850020e-10   6.6146090149893387e-10   7.2668778293180658e-10   6.9543058290909996e-10   7.6916870462557707e-10   6.9542562553763400e-10   7.6920342570939531e-10   6.9542559775131260e-10   7.6920197339484434e-10   6.9542559803029384e-10   7.6920196548830525e-10   6.9542559759085548e-10   7.6920196504650736e-10   6.9542559771083276e-10   7.6920196543225239e-10   6.9542559777282301e-10   7.6920196536834410e-10   6.9542559800243719e-10   7.6920196508320719e-10   6.9542559766693449e-10   7.6920196530066481e-10   6.9542559782545352e-10   7.6920196555477024e-10   6.9542559777990668e-10   7.6920196551748270e-10   6.9542559775096177e-10   7.6920196530312546e-10   6.9542559777873756e-10   7.6920196543712500e-10   6.9542559798605022e-10   7.6920196527948009e-10   6.9542559758640670e-10   7.6920196510785335e-10   6.9542559791526600e-10   7.6920196547960227e-10   6.9542559768860703e-10   7.6920196516542522e-10   6.9542559741834107e-10   7.6920196530422964e-10   6.9542559800388392e-10   7.6920196547400050e-10   6.9542559789734989e-10   7.6920196516785548e-10   6.9542559785021031e-10   7.6920196535491245e-10   6.9542559811202931e-10   7.6920196553609943e-10   6.9542559778847203e-10   7.6920196525795509e-10   6.9542559834799664e-10   7.6920196554055814e-10   6.9542559789646108e-10   7.6920196500792228e-10   6.9542559708780559e-10   7.6920196541461431e-10   6.9542559765322056e-10   7.6920196589004195e-10   6.9542558931799770e-10   7.6920196532999167e-10   6.9542410737293008e-10   7.6920190931101182e-10   6.9469483580458477e-10   7.6919190131097838e-10   6.4561671408669896e-10   7.2831405309835904e-10   9.9659083376039341e-10   1.0575877026385810e-09   1.0486217133651281e-09   1.1221729577596138e-09   1.0486165263096217e-09   1.1223942914664613e-09   1.0486164975889687e-09   1.1223928755297965e-09   1.0486164976807214e-09   1.1223928677928162e-09   1.0486164978422222e-09   1.1223928676250545e-09   1.0486164978286879e-09   1.1223928675608146e-09   1.0486164976748205e-09   1.1223928675820610e-09   1.0486164978548884e-09   1.1223928677167071e-09   1.0486164976087087e-09   1.1223928671909464e-09   1.0486164979005010e-09   1.1223928675802589e-09   1.0486164980536899e-09   1.1223928681090952e-09   1.0486164977472335e-09   1.1223928675741362e-09   1.0486164982845767e-09   1.1223928676161032e-09   1.0486164975832865e-09   1.1223928674917527e-09   1.0486164981834818e-09   1.1223928677128324e-09   1.0486164981831178e-09   1.1223928676448158e-09   1.0486164978569593e-09   1.1223928676730068e-09   1.0486164979240581e-09   1.1223928676182311e-09   1.0486164978982258e-09   1.1223928679967820e-09   1.0486164975857025e-09   1.1223928679272027e-09   1.0486164977960347e-09   1.1223928675973315e-09   1.0486164979205657e-09   1.1223928677576216e-09   1.0486164983924485e-09   1.1223928680175054e-09   1.0486164984208946e-09   1.1223928672491247e-09   1.0486164978224950e-09   1.1223928674176295e-09   1.0486164983173095e-09   1.1223928679625409e-09   1.0486164981173884e-09   1.1223928678078469e-09   1.0486164894344691e-09   1.1223928673425376e-09   1.0486149718351155e-09   1.1223928124243299e-09   1.0476990874013607e-09   1.1223830332086020e-09   9.7651663271325553e-10   1.0634439873531881e-09   1.3112994128750642e-09   1.3571281976040487e-09   1.3805425156104233e-09   1.4426373764129491e-09   1.3805382578322371e-09   1.4430839888274228e-09   1.3805382341624430e-09   1.4430828282861677e-09   1.3805382350138823e-09   1.4430828220258905e-09   1.3805382339917396e-09   1.4430828212336616e-09   1.3805382344230082e-09   1.4430828220249411e-09   1.3805382345862856e-09   1.4430828219195821e-09   1.3805382341009167e-09   1.4430828217171915e-09   1.3805382345776769e-09   1.4430828215000874e-09   1.3805382341045815e-09   1.4430828214025436e-09   1.3805382349460295e-09   1.4430828220073646e-09   1.3805382342493813e-09   1.4430828217609067e-09   1.3805382341781938e-09   1.4430828219029272e-09   1.3805382340295153e-09   1.4430828217133474e-09   1.3805382338829674e-09   1.4430828215319427e-09   1.3805382346345964e-09   1.4430828225172292e-09   1.3805382342087984e-09   1.4430828216255934e-09   1.3805382338419417e-09   1.4430828219180483e-09   1.3805382339990155e-09   1.4430828221464680e-09   1.3805382342958629e-09   1.4430828214357731e-09   1.3805382345374991e-09   1.4430828221109398e-09   1.3805382341333841e-09   1.4430828213911781e-09   1.3805382342891716e-09   1.4430828215280136e-09   1.3805382344252505e-09   1.4430828218139377e-09   1.3805382342303525e-09   1.4430828216001239e-09   1.3805382341913058e-09   1.4430828216076986e-09   1.3805382333090536e-09   1.4430828215447740e-09   1.3805382265653462e-09   1.4430828222574463e-09   1.3805368993315764e-09   1.4430827751497826e-09   1.3795014763161896e-09   1.4430743446816569e-09   1.2883994623365254e-09   1.3679747812015536e-09   1.5576751086990135e-09   1.5797069438891350e-09   1.6406610572214598e-09   1.6817741591021211e-09   1.6406587425781797e-09   1.6824504161202441e-09   1.6406587304486830e-09   1.6824496939631511e-09   1.6406587304372153e-09   1.6824496898985359e-09   1.6406587301899779e-09   1.6824496887859449e-09   1.6406587302059181e-09   1.6824496895452504e-09   1.6406587301776086e-09   1.6824496895299914e-09   1.6406587299585960e-09   1.6824496894292638e-09   1.6406587300389678e-09   1.6824496899992417e-09   1.6406587306461035e-09   1.6824496897474055e-09   1.6406587298276349e-09   1.6824496894383123e-09   1.6406587303876794e-09   1.6824496892243556e-09   1.6406587303126316e-09   1.6824496893795047e-09   1.6406587296222342e-09   1.6824496895027526e-09   1.6406587292391828e-09   1.6824496889811238e-09   1.6406587303674263e-09   1.6824496898111904e-09   1.6406587300935652e-09   1.6824496890715838e-09   1.6406587298350822e-09   1.6824496897955286e-09   1.6406587297478062e-09   1.6824496898305655e-09   1.6406587293079539e-09   1.6824496895852353e-09   1.6406587299734356e-09   1.6824496899181161e-09   1.6406587298146246e-09   1.6824496895272441e-09   1.6406587299190957e-09   1.6824496896430755e-09   1.6406587297545175e-09   1.6824496896099953e-09   1.6406587300980266e-09   1.6824496891754287e-09   1.6406587286541175e-09   1.6824496896037525e-09   1.6406587297688650e-09   1.6824496901347806e-09   1.6406587247036020e-09   1.6824496889426402e-09   1.6406577855593558e-09   1.6824496551013655e-09   1.6395880968442740e-09   1.6824434917388262e-09   1.5337838706849630e-09   1.5955443812667592e-09   1.6982094573827711e-09   1.6914383439701637e-09   1.7893766472338158e-09   1.8031768958605014e-09   1.7893769977693139e-09   1.8040522053984229e-09   1.7893769980481031e-09   1.8040520338063766e-09   1.7893769968654768e-09   1.8040520348440019e-09   1.7893769974756559e-09   1.8040520354119350e-09   1.7893769981358649e-09   1.8040520344538212e-09   1.7893769979475823e-09   1.8040520350896654e-09   1.7893769974349135e-09   1.8040520336779886e-09   1.7893769976845632e-09   1.8040520348161358e-09   1.7893769986656329e-09   1.8040520351968382e-09   1.7893769969539874e-09   1.8040520345674452e-09   1.7893769978223876e-09   1.8040520353420275e-09   1.7893769980330627e-09   1.8040520340282876e-09   1.7893769986699709e-09   1.8040520345318628e-09   1.7893769970395344e-09   1.8040520341781663e-09   1.7893769975642725e-09   1.8040520352948087e-09   1.7893769979912154e-09   1.8040520344500298e-09   1.7893769984220390e-09   1.8040520348348750e-09   1.7893769982550500e-09   1.8040520343255954e-09   1.7893769985006178e-09   1.8040520352580078e-09   1.7893769976625145e-09   1.8040520342982897e-09   1.7893769997210062e-09   1.8040520344742273e-09   1.7893769975044560e-09   1.8040520332618845e-09   1.7893769978610569e-09   1.8040520346188385e-09   1.7893769977070503e-09   1.8040520344088374e-09   1.7893769982905595e-09   1.8040520339759120e-09   1.7893769988611943e-09   1.8040520331327875e-09   1.7893769956550847e-09   1.8040520336427520e-09   1.7893765821225510e-09   1.8040520162755243e-09   1.7883631181534926e-09   1.8040486907655554e-09   1.6753123032175591e-09   1.7115073795031977e-09   1.7115073756633170e-09   1.6753123059927155e-09   1.8040486853248334e-09   1.7883631217995503e-09   1.8040520112899270e-09   1.7893765861399796e-09   1.8040520292638259e-09   1.7893770006370870e-09   1.8040520295475472e-09   1.7893770036849653e-09   1.8040520296067912e-09   1.7893770030327396e-09   1.8040520295300745e-09   1.7893770030195084e-09   1.8040520293004223e-09   1.7893770024145433e-09   1.8040520293171324e-09   1.7893770033554318e-09   1.8040520288872263e-09   1.7893770030117809e-09   1.8040520292205615e-09   1.7893770032315413e-09   1.8040520290055789e-09   1.7893770036871809e-09   1.8040520290635959e-09   1.7893770032731538e-09   1.8040520289318054e-09   1.7893770036881351e-09   1.8040520301967006e-09   1.7893770030964329e-09   1.8040520291532480e-09   1.7893770026566446e-09   1.8040520290066689e-09   1.7893770034634331e-09   1.8040520301641628e-09   1.7893770032594950e-09   1.8040520290708588e-09   1.7893770033261937e-09   1.8040520296740748e-09   1.7893770034392182e-09   1.8040520295754147e-09   1.7893770029276862e-09   1.8040520296897439e-09   1.7893770028473725e-09   1.8040520303045546e-09   1.7893770031674956e-09   1.8040520291175450e-09   1.7893770026135389e-09   1.8040520297183760e-09   1.7893770026303456e-09   1.8040520292347121e-09   1.7893770027053603e-09   1.8040520299553680e-09   1.7893770033148107e-09   1.8040520293042074e-09   1.7893770026490837e-09   1.8040520301717011e-09   1.7893770030901197e-09   1.8040522008564503e-09   1.7893770010486290e-09   1.8031768914597194e-09   1.7893766515535234e-09   1.6914383410629101e-09   1.6982094608781810e-09   1.5955443774989753e-09   1.5337838725121104e-09   1.6824434859715215e-09   1.6395881011432496e-09   1.6824496503800876e-09   1.6406577904173516e-09   1.6824496843800137e-09   1.6406587285694485e-09   1.6824496844167091e-09   1.6406587354781942e-09   1.6824496846956077e-09   1.6406587342191345e-09   1.6824496855387380e-09   1.6406587347791368e-09   1.6824496839999257e-09   1.6406587340993486e-09   1.6824496848264050e-09   1.6406587351978499e-09   1.6824496856489770e-09   1.6406587338520018e-09   1.6824496859111889e-09   1.6406587342964654e-09   1.6824496846475996e-09   1.6406587337473649e-09   1.6824496853270607e-09   1.6406587346374449e-09   1.6824496847091483e-09   1.6406587341751047e-09   1.6824496845416609e-09   1.6406587343613593e-09   1.6824496839148698e-09   1.6406587348185884e-09   1.6824496842786655e-09   1.6406587347911020e-09   1.6824496848121300e-09   1.6406587352094176e-09   1.6824496851661459e-09   1.6406587347187208e-09   1.6824496844213560e-09   1.6406587350295893e-09   1.6824496845375439e-09   1.6406587344117030e-09   1.6824496855429414e-09   1.6406587347387231e-09   1.6824496857007223e-09   1.6406587340397865e-09   1.6824496852587209e-09   1.6406587340102851e-09   1.6824496850070760e-09   1.6406587343755413e-09   1.6824496848072914e-09   1.6406587348196099e-09   1.6824496854497502e-09   1.6406587346749168e-09   1.6824496851740376e-09   1.6406587342337587e-09   1.6824496893093788e-09   1.6406587344524278e-09   1.6824504107861066e-09   1.6406587467467712e-09   1.6817741540046344e-09   1.6406610619368411e-09   1.5797069416134364e-09   1.5576751135856657e-09   1.3679747773600611e-09   1.2883994646607302e-09   1.4430743410280601e-09   1.3795014800047127e-09   1.4430827703464237e-09   1.3805369039325553e-09   1.4430828178220073e-09   1.3805382303194677e-09   1.4430828179077253e-09   1.3805382379449867e-09   1.4430828176381339e-09   1.3805382376622686e-09   1.4430828177608677e-09   1.3805382377048981e-09   1.4430828176442551e-09   1.3805382377552265e-09   1.4430828171825739e-09   1.3805382379494254e-09   1.4430828178851418e-09   1.3805382379331537e-09   1.4430828175696541e-09   1.3805382383265817e-09   1.4430828175394016e-09   1.3805382377580677e-09   1.4430828176302499e-09   1.3805382379138340e-09   1.4430828178407851e-09   1.3805382379988302e-09   1.4430828167118254e-09   1.3805382379492554e-09   1.4430828177245646e-09   1.3805382389115003e-09   1.4430828175099213e-09   1.3805382381583050e-09   1.4430828175832286e-09   1.3805382379793277e-09   1.4430828178540030e-09   1.3805382380464009e-09   1.4430828172512127e-09   1.3805382381469470e-09   1.4430828177434191e-09   1.3805382380579798e-09   1.4430828180497471e-09   1.3805382381674367e-09   1.4430828186486120e-09   1.3805382379722713e-09   1.4430828180737126e-09   1.3805382373135464e-09   1.4430828182228917e-09   1.3805382376530490e-09   1.4430828176742271e-09   1.3805382379728308e-09   1.4430828181100996e-09   1.3805382382196859e-09   1.4430828173789145e-09   1.3805382373719565e-09   1.4430828242279853e-09   1.3805382379877284e-09   1.4430839841255032e-09   1.3805382613464304e-09   1.4426373734127753e-09   1.3805425196320166e-09   1.3571281957329438e-09   1.3112994159437971e-09   1.0634439847210464e-09   9.7651663396558568e-10   1.1223830303144703e-09   1.0476990893218913e-09   1.1223928101034201e-09   1.0486149745491883e-09   1.1223928637238737e-09   1.0486164925797397e-09   1.1223928644072241e-09   1.0486165008733639e-09   1.1223928642323900e-09   1.0486165007015445e-09   1.1223928646428337e-09   1.0486165012236476e-09   1.1223928644960441e-09   1.0486165002550493e-09   1.1223928642639426e-09   1.0486165005682135e-09   1.1223928648957837e-09   1.0486165007416551e-09   1.1223928649412083e-09   1.0486165003632681e-09   1.1223928644447980e-09   1.0486165003527071e-09   1.1223928647785868e-09   1.0486165006007843e-09   1.1223928644127002e-09   1.0486165006188276e-09   1.1223928646220714e-09   1.0486165009446719e-09   1.1223928649857797e-09   1.0486165004067241e-09   1.1223928641504209e-09   1.0486165005951169e-09   1.1223928645271351e-09   1.0486165007025271e-09   1.1223928648028245e-09   1.0486165002758626e-09   1.1223928642773036e-09   1.0486165003060411e-09   1.1223928645554400e-09   1.0486165005279587e-09   1.1223928648490461e-09   1.0486165010400510e-09   1.1223928646908275e-09   1.0486165005730775e-09   1.1223928641371883e-09   1.0486165003000554e-09   1.1223928646518940e-09   1.0486165008773212e-09   1.1223928641778430e-09   1.0486165006550633e-09   1.1223928646101009e-09   1.0486165007355188e-09   1.1223928643772394e-09   1.0486165006786442e-09   1.1223928722648514e-09   1.0486165010502429e-09   1.1223942890791904e-09   1.0486165297808369e-09   1.1221729548646709e-09   1.0486217158497338e-09   1.0575877007126491e-09   9.9659083638803664e-10   7.2831405160859755e-10   6.4561671461987394e-10   7.6919189890083350e-10   6.9469483611872501e-10   7.6920190742276569e-10   6.9542410831911158e-10   7.6920196279805457e-10   6.9542558994711591e-10   7.6920196313461379e-10   6.9542559856134420e-10   7.6920196310752063e-10   6.9542559847584775e-10   7.6920196320724407e-10   6.9542559849257406e-10   7.6920196290573643e-10   6.9542559870161987e-10   7.6920196299383540e-10   6.9542559853041416e-10   7.6920196336573291e-10   6.9542559913373695e-10   7.6920196299739662e-10   6.9542559819947616e-10   7.6920196344372705e-10   6.9542559866670375e-10   7.6920196332612771e-10   6.9542559838247002e-10   7.6920196310515696e-10   6.9542559843710116e-10   7.692019635753