<?xml version="1.0"?>
<VTKFile type="UnstructuredGrid"  version="0.1"  >
<UnstructuredGrid>
<Piece  NumberOfPoints="25" NumberOfCells="32">
<Points>
<DataArray  type="Float64"  NumberOfComponents="3"  format="ascii">0 0 0  0.25 0 0  0.5 0 0  0.75 0 0  1 0 0  0 0.25 0  0.25 0.25 0  0.5 0.25 0  0.75 0.25 0  1 0.25 0  0 0.5 0  0.25 0.5 0  0.5 0.5 0  0.75 0.5 0  1 0.5 0  0 0.75 0  0.25 0.75 0  0.5 0.75 0  0.75 0.75 0  1 0.75 0  0 1 0  0.25 1 0  0.5 1 0  0.75 1 0  1 1 0  </DataArray>
</Points>
<Cells>
<DataArray  type="UInt32"  Name="connectivity"  format="ascii">0 1 6  0 5 6  1 2 7  1 6 7  2 3 8  2 7 8  3 4 9  3 8 9  5 6 11  5 10 11  6 7 12  6 11 12  7 8 13  7 12 13  8 9 14  8 13 14  10 11 16  10 15 16  11 12 17  11 16 17  12 13 18  12 17 18  13 14 19  13 18 19  15 16 21  15 20 21  16 17 22  16 21 22  17 18 23  17 22 23  18 19 24  18 23 24  </DataArray>
<DataArray  type="UInt32"  Name="offsets"  format="ascii">3 6 9 12 15 18 21 24 27 30 33 36 39 42 45 48 51 54 57 60 63 66 69 72 75 78 81 84 87 90 93 96 </DataArray>
<DataArray  type="UInt8"  Name="types"  format="ascii">5 5 5 5 5 5 5 5 5 5 5 5 5 5 5 5 5 5 5 5 5 5 5 5 5 5 5 5 5 5 5 5 </DataArray>
</Cells>
<CellData  Scalars="f_635"> 
<DataArray  type="Float64"  Name="f_635"  format="ascii">1.0858031281301606e-02   1.3312723436101626e-02   1.1057119624283025e-02   1.2095392025815336e-02   1.1026685807212472e-02   1.2074527141042896e-02   9.0996778096495319e-03   1.1806601714539787e-02   1.1780409462093478e-02   9.2473226154040754e-03   1.2046531853748717e-02   1.1113293661189917e-02   1.2067152982126810e-02   1.1143374066478591e-02   1.3255188718579036e-02   1.0923802987161758e-02   1.0923802987148392e-02   1.3255188718582632e-02   1.1143374066469930e-02   1.2067152982133719e-02   1.1113293661181207e-02   1.2046531853755545e-02   9.2473226153971019e-03   1.1780409462101623e-02   1.1806601714534903e-02   9.0996778096560232e-03   1.2074527141035310e-02   1.1026685807223364e-02   1.2095392025807818e-02   1.1057119624293290e-02   1.3312723436100153e-02   1.0858031281312552e-02   </DataArray> 
</CellData> 
</Piece>
</UnstructuredGrid>
</VTKFile>