<?xml version="1.0"?>
<VTKFile type="UnstructuredGrid"  version="0.1"  >
<UnstructuredGrid>
<Piece  NumberOfPoints="81" NumberOfCells="128">
<Points>
<DataArray  type="Float64"  NumberOfComponents="3"  format="ascii">0 0 0  0.125 0 0  0.25 0 0  0.375 0 0  0.5 0 0  0.625 0 0  0.75 0 0  0.875 0 0  1 0 0  0 0.125 0  0.125 0.125 0  0.25 0.125 0  0.375 0.125 0  0.5 0.125 0  0.625 0.125 0  0.75 0.125 0  0.875 0.125 0  1 0.125 0  0 0.25 0  0.125 0.25 0  0.25 0.25 0  0.375 0.25 0  0.5 0.25 0  0.625 0.25 0  0.75 0.25 0  0.875 0.25 0  1 0.25 0  0 0.375 0  0.125 0.375 0  0.25 0.375 0  0.375 0.375 0  0.5 0.375 0  0.625 0.375 0  0.75 0.375 0  0.875 0.375 0  1 0.375 0  0 0.5 0  0.125 0.5 0  0.25 0.5 0  0.375 0.5 0  0.5 0.5 0  0.625 0.5 0  0.75 0.5 0  0.875 0.5 0  1 0.5 0  0 0.625 0  0.125 0.625 0  0.25 0.625 0  0.375 0.625 0  0.5 0.625 0  0.625 0.625 0  0.75 0.625 0  0.875 0.625 0  1 0.625 0  0 0.75 0  0.125 0.75 0  0.25 0.75 0  0.375 0.75 0  0.5 0.75 0  0.625 0.75 0  0.75 0.75 0  0.875 0.75 0  1 0.75 0  0 0.875 0  0.125 0.875 0  0.25 0.875 0  0.375 0.875 0  0.5 0.875 0  0.625 0.875 0  0.75 0.875 0  0.875 0.875 0  1 0.875 0  0 1 0  0.125 1 0  0.25 1 0  0.375 1 0  0.5 1 0  0.625 1 0  0.75 1 0  0.875 1 0  1 1 0  </DataArray>
</Points>
<Cells>
<DataArray  type="UInt32"  Name="connectivity"  format="ascii">0 1 10  0 9 10  1 2 11  1 10 11  2 3 12  2 11 12  3 4 13  3 12 13  4 5 14  4 13 14  5 6 15  5 14 15  6 7 16  6 15 16  7 8 17  7 16 17  9 10 19  9 18 19  10 11 20  10 19 20  11 12 21  11 20 21  12 13 22  12 21 22  13 14 23  13 22 23  14 15 24  14 23 24  15 16 25  15 24 25  16 17 26  16 25 26  18 19 28  18 27 28  19 20 29  19 28 29  20 21 30  20 29 30  21 22 31  21 30 31  22 23 32  22 31 32  23 24 33  23 32 33  24 25 34  24 33 34  25 26 35  25 34 35  27 28 37  27 36 37  28 29 38  28 37 38  29 30 39  29 38 39  30 31 40  30 39 40  31 32 41  31 40 41  32 33 42  32 41 42  33 34 43  33 42 43  34 35 44  34 43 44  36 37 46  36 45 46  37 38 47  37 46 47  38 39 48  38 47 48  39 40 49  39 48 49  40 41 50  40 49 50  41 42 51  41 50 51  42 43 52  42 51 52  43 44 53  43 52 53  45 46 55  45 54 55  46 47 56  46 55 56  47 48 57  47 56 57  48 49 58  48 57 58  49 50 59  49 58 59  50 51 60  50 59 60  51 52 61  51 60 61  52 53 62  52 61 62  54 55 64  54 63 64  55 56 65  55 64 65  56 57 66  56 65 66  57 58 67  57 66 67  58 59 68  58 67 68  59 60 69  59 68 69  60 61 70  60 69 70  61 62 71  61 70 71  63 64 73  63 72 73  64 65 74  64 73 74  65 66 75  65 74 75  66 67 76  66 75 76  67 68 77  67 76 77  68 69 78  68 77 78  69 70 79  69 78 79  70 71 80  70 79 80  </DataArray>
<DataArray  type="UInt32"  Name="offsets"  format="ascii">3 6 9 12 15 18 21 24 27 30 33 36 39 42 45 48 51 54 57 60 63 66 69 72 75 78 81 84 87 90 93 96 99 102 105 108 111 114 117 120 123 126 129 132 135 138 141 144 147 150 153 156 159 162 165 168 171 174 177 180 183 186 189 192 195 198 201 204 207 210 213 216 219 222 225 228 231 234 237 240 243 246 249 252 255 258 261 264 267 270 273 276 279 282 285 288 291 294 297 300 303 306 309 312 315 318 321 324 327 330 333 336 339 342 345 348 351 354 357 360 363 366 369 372 375 378 381 384 </DataArray>
<DataArray  type="UInt8"  Name="types"  format="ascii">5 5 5 5 5 5 5 5 5 5 5 5 5 5 5 5 5 5 5 5 5 5 5 5 5 5 5 5 5 5 5 5 5 5 5 5 5 5 5 5 5 5 5 5 5 5 5 5 5 5 5 5 5 5 5 5 5 5 5 5 5 5 5 5 5 5 5 5 5 5 5 5 5 5 5 5 5 5 5 5 5 5 5 5 5 5 5 5 5 5 5 5 5 5 5 5 5 5 5 5 5 5 5 5 5 5 5 5 5 5 5 5 5 5 5 5 5 5 5 5 5 5 5 5 5 5 5 5 </DataArray>
</Cells>
<CellData  Scalars="f_693"> 
<DataArray  type="Float64"  Name="f_693"  format="ascii">1.3189362524642294e-05   2.3799304981618902e-05   1.3492699175364368e-05   2.3581493471963809e-05   1.3494224224825456e-05   2.3532129514055335e-05   1.3494232583845170e-05   2.3531800108438192e-05   1.3494229309601148e-05   2.3531796443678073e-05   1.3493934786676254e-05   2.3531778931064020e-05   1.3430794311272564e-05   2.3529353089646410e-05   1.1275828375869642e-05   2.2263933739505691e-05   8.4051218536029685e-05   9.3731992755836265e-05   8.7661652785043901e-05   9.7574532382768307e-05   8.7664079650585233e-05   9.7571834949874707e-05   8.7664092905136702e-05   9.7571630943403214e-05   8.7664088733770446e-05   9.7571628146811006e-05   8.7663676670977217e-05   9.7571607868514115e-05   8.7552913005570226e-05   9.7568616987184703e-05   8.1494847959581813e-05   9.3032956278394537e-05   9.3032458508822557e-05   8.1487325475461077e-05   9.7568065146097309e-05   8.7542261789101962e-05   9.7571055959820631e-05   8.7653037789472814e-05   9.7571076237577915e-05   8.7653449822954488e-05   9.7571079034054019e-05   8.7653453994354869e-05   9.7571283024853491e-05   8.7653440723555479e-05   9.7573972355123091e-05   8.7651011418531300e-05   9.3731066544473098e-05   8.4039611946715604e-05   2.2223162406439700e-05   1.1470244305258592e-05   2.3483723872625014e-05   1.3503882480692894e-05   2.3486140074381254e-05   1.3568323666745579e-05   2.3486157518592860e-05   1.3568612547258513e-05   2.3486161165225488e-05   1.3568615868496879e-05   2.3486488308929572e-05   1.3568605431376222e-05   2.3535512425209809e-05   1.3566750747775933e-05   2.3713924871773627e-05   1.3230403897916411e-05   1.3230403897717487e-05   2.3713924871822887e-05   1.3566750747606248e-05   2.3535512425384887e-05   1.3568605431206077e-05   2.3486488309168130e-05   1.3568615868305409e-05   2.3486161165437090e-05   1.3568612547101264e-05   2.3486157518866825e-05   1.3568323666582130e-05   2.3486140074665292e-05   1.3503882480503196e-05   2.3483723872853645e-05   1.1470244305087554e-05   2.2223162406626078e-05   8.4039611945627878e-05   9.3731066545337872e-05   8.7651011417371488e-05   9.7573972356268686e-05   8.7653440722551792e-05   9.7571283025909260e-05   8.7653453993328305e-05   9.7571079035129479e-05   8.7653449821916812e-05   9.7571076238573673e-05   8.7653037788444678e-05   9.7571055960871494e-05   8.7542261788206669e-05   9.7568065147085478e-05   8.1487325474656450e-05   9.3032458509658490e-05   9.3032956277482289e-05   8.1494847960418261e-05   9.7568616986025867e-05   8.7552913006633151e-05   9.7571607867532546e-05   8.7663676671985349e-05   9.7571628145825900e-05   8.7664088734839564e-05   9.7571630942334340e-05   8.7664092906293193e-05   9.7571834948922398e-05   8.7664079651582889e-05   9.7574532381711508e-05   8.7661652785965961e-05   9.3731992755241391e-05   8.4051218537339292e-05   2.2263933739340845e-05   1.1275828376004918e-05   2.3529353089414424e-05   1.3430794311445592e-05   2.3531778930832282e-05   1.3493934786864346e-05   2.3531796443458516e-05   1.3494229309794916e-05   2.3531800108221290e-05   1.3494232584006658e-05   2.3532129513793303e-05   1.3494224225034986e-05   2.3581493471714900e-05   1.3492699175558672e-05   2.3799304981602666e-05   1.3189362524865720e-05   </DataArray> 
</CellData> 
</Piece>
</UnstructuredGrid>
</VTKFile>