<?xml version="1.0"?>
<VTKFile type="UnstructuredGrid"  version="0.1"  >
<UnstructuredGrid>
<Piece  NumberOfPoints="4225" NumberOfCells="8192">
<Points>
<DataArray  type="Float64"  NumberOfComponents="3"  format="ascii">0 0 0  0.015625 0 0  0.03125 0 0  0.046875 0 0  0.0625 0 0  0.078125 0 0  0.09375 0 0  0.109375 0 0  0.125 0 0  0.140625 0 0  0.15625 0 0  0.171875 0 0  0.1875 0 0  0.203125 0 0  0.21875 0 0  0.234375 0 0  0.25 0 0  0.265625 0 0  0.28125 0 0  0.296875 0 0  0.3125 0 0  0.328125 0 0  0.34375 0 0  0.359375 0 0  0.375 0 0  0.390625 0 0  0.40625 0 0  0.421875 0 0  0.4375 0 0  0.453125 0 0  0.46875 0 0  0.484375 0 0  0.5 0 0  0.515625 0 0  0.53125 0 0  0.546875 0 0  0.5625 0 0  0.578125 0 0  0.59375 0 0  0.609375 0 0  0.625 0 0  0.640625 0 0  0.65625 0 0  0.671875 0 0  0.6875 0 0  0.703125 0 0  0.71875 0 0  0.734375 0 0  0.75 0 0  0.765625 0 0  0.78125 0 0  0.796875 0 0  0.8125 0 0  0.828125 0 0  0.84375 0 0  0.859375 0 0  0.875 0 0  0.890625 0 0  0.90625 0 0  0.921875 0 0  0.9375 0 0  0.953125 0 0  0.96875 0 0  0.984375 0 0  1 0 0  0 0.015625 0  0.015625 0.015625 0  0.03125 0.015625 0  0.046875 0.015625 0  0.0625 0.015625 0  0.078125 0.015625 0  0.09375 0.015625 0  0.109375 0.015625 0  0.125 0.015625 0  0.140625 0.015625 0  0.15625 0.015625 0  0.171875 0.015625 0  0.1875 0.015625 0  0.203125 0.015625 0  0.21875 0.015625 0  0.234375 0.015625 0  0.25 0.015625 0  0.265625 0.015625 0  0.28125 0.015625 0  0.296875 0.015625 0  0.3125 0.015625 0  0.328125 0.015625 0  0.34375 0.015625 0  0.359375 0.015625 0  0.375 0.015625 0  0.390625 0.015625 0  0.40625 0.015625 0  0.421875 0.015625 0  0.4375 0.015625 0  0.453125 0.015625 0  0.46875 0.015625 0  0.484375 0.015625 0  0.5 0.015625 0  0.515625 0.015625 0  0.53125 0.015625 0  0.546875 0.015625 0  0.5625 0.015625 0  0.578125 0.015625 0  0.59375 0.015625 0  0.609375 0.015625 0  0.625 0.015625 0  0.640625 0.015625 0  0.65625 0.015625 0  0.671875 0.015625 0  0.6875 0.015625 0  0.703125 0.015625 0  0.71875 0.015625 0  0.734375 0.015625 0  0.75 0.015625 0  0.765625 0.015625 0  0.78125 0.015625 0  0.796875 0.015625 0  0.8125 0.015625 0  0.828125 0.015625 0  0.84375 0.015625 0  0.859375 0.015625 0  0.875 0.015625 0  0.890625 0.015625 0  0.90625 0.015625 0  0.921875 0.015625 0  0.9375 0.015625 0  0.953125 0.015625 0  0.96875 0.015625 0  0.984375 0.015625 0  1 0.015625 0  0 0.03125 0  0.015625 0.03125 0  0.03125 0.03125 0  0.046875 0.03125 0  0.0625 0.03125 0  0.078125 0.03125 0  0.09375 0.03125 0  0.109375 0.03125 0  0.125 0.03125 0  0.140625 0.03125 0  0.15625 0.03125 0  0.171875 0.03125 0  0.1875 0.03125 0  0.203125 0.03125 0  0.21875 0.03125 0  0.234375 0.03125 0  0.25 0.03125 0  0.265625 0.03125 0  0.28125 0.03125 0  0.296875 0.03125 0  0.3125 0.03125 0  0.328125 0.03125 0  0.34375 0.03125 0  0.359375 0.03125 0  0.375 0.03125 0  0.390625 0.03125 0  0.40625 0.03125 0  0.421875 0.03125 0  0.4375 0.03125 0  0.453125 0.03125 0  0.46875 0.03125 0  0.484375 0.03125 0  0.5 0.03125 0  0.515625 0.03125 0  0.53125 0.03125 0  0.546875 0.03125 0  0.5625 0.03125 0  0.578125 0.03125 0  0.59375 0.03125 0  0.609375 0.03125 0  0.625 0.03125 0  0.640625 0.03125 0  0.65625 0.03125 0  0.671875 0.03125 0  0.6875 0.03125 0  0.703125 0.03125 0  0.71875 0.03125 0  0.734375 0.03125 0  0.75 0.03125 0  0.765625 0.03125 0  0.78125 0.03125 0  0.796875 0.03125 0  0.8125 0.03125 0  0.828125 0.03125 0  0.84375 0.03125 0  0.859375 0.03125 0  0.875 0.03125 0  0.890625 0.03125 0  0.90625 0.03125 0  0.921875 0.03125 0  0.9375 0.03125 0  0.953125 0.03125 0  0.96875 0.03125 0  0.984375 0.03125 0  1 0.03125 0  0 0.046875 0  0.015625 0.046875 0  0.03125 0.046875 0  0.046875 0.046875 0  0.0625 0.046875 0  0.078125 0.046875 0  0.09375 0.046875 0  0.109375 0.046875 0  0.125 0.046875 0  0.140625 0.046875 0  0.15625 0.046875 0  0.171875 0.046875 0  0.1875 0.046875 0  0.203125 0.046875 0  0.21875 0.046875 0  0.234375 0.046875 0  0.25 0.046875 0  0.265625 0.046875 0  0.28125 0.046875 0  0.296875 0.046875 0  0.3125 0.046875 0  0.328125 0.046875 0  0.34375 0.046875 0  0.359375 0.046875 0  0.375 0.046875 0  0.390625 0.046875 0  0.40625 0.046875 0  0.421875 0.046875 0  0.4375 0.046875 0  0.453125 0.046875 0  0.46875 0.046875 0  0.484375 0.046875 0  0.5 0.046875 0  0.515625 0.046875 0  0.53125 0.046875 0  0.546875 0.046875 0  0.5625 0.046875 0  0.578125 0.046875 0  0.59375 0.046875 0  0.609375 0.046875 0  0.625 0.046875 0  0.640625 0.046875 0  0.65625 0.046875 0  0.671875 0.046875 0  0.6875 0.046875 0  0.703125 0.046875 0  0.71875 0.046875 0  0.734375 0.046875 0  0.75 0.046875 0  0.765625 0.046875 0  0.78125 0.046875 0  0.796875 0.046875 0  0.8125 0.046875 0  0.828125 0.046875 0  0.84375 0.046875 0  0.859375 0.046875 0  0.875 0.046875 0  0.890625 0.046875 0  0.90625 0.046875 0  0.921875 0.046875 0  0.9375 0.046875 0  0.953125 0.046875 0  0.96875 0.046875 0  0.984375 0.046875 0  1 0.046875 0  0 0.0625 0  0.015625 0.0625 0  0.03125 0.0625 0  0.046875 0.0625 0  0.0625 0.0625 0  0.078125 0.0625 0  0.09375 0.0625 0  0.109375 0.0625 0  0.125 0.0625 0  0.140625 0.0625 0  0.15625 0.0625 0  0.171875 0.0625 0  0.1875 0.0625 0  0.203125 0.0625 0  0.21875 0.0625 0  0.234375 0.0625 0  0.25 0.0625 0  0.265625 0.0625 0  0.28125 0.0625 0  0.296875 0.0625 0  0.3125 0.0625 0  0.328125 0.0625 0  0.34375 0.0625 0  0.359375 0.0625 0  0.375 0.0625 0  0.390625 0.0625 0  0.40625 0.0625 0  0.421875 0.0625 0  0.4375 0.0625 0  0.453125 0.0625 0  0.46875 0.0625 0  0.484375 0.0625 0  0.5 0.0625 0  0.515625 0.0625 0  0.53125 0.0625 0  0.546875 0.0625 0  0.5625 0.0625 0  0.578125 0.0625 0  0.59375 0.0625 0  0.609375 0.0625 0  0.625 0.0625 0  0.640625 0.0625 0  0.65625 0.0625 0  0.671875 0.0625 0  0.6875 0.0625 0  0.703125 0.0625 0  0.71875 0.0625 0  0.734375 0.0625 0  0.75 0.0625 0  0.765625 0.0625 0  0.78125 0.0625 0  0.796875 0.0625 0  0.8125 0.0625 0  0.828125 0.0625 0  0.84375 0.0625 0  0.859375 0.0625 0  0.875 0.0625 0  0.890625 0.0625 0  0.90625 0.0625 0  0.921875 0.0625 0  0.9375 0.0625 0  0.953125 0.0625 0  0.96875 0.0625 0  0.984375 0.0625 0  1 0.0625 0  0 0.078125 0  0.015625 0.078125 0  0.03125 0.078125 0  0.046875 0.078125 0  0.0625 0.078125 0  0.078125 0.078125 0  0.09375 0.078125 0  0.109375 0.078125 0  0.125 0.078125 0  0.140625 0.078125 0  0.15625 0.078125 0  0.171875 0.078125 0  0.1875 0.078125 0  0.203125 0.078125 0  0.21875 0.078125 0  0.234375 0.078125 0  0.25 0.078125 0  0.265625 0.078125 0  0.28125 0.078125 0  0.296875 0.078125 0  0.3125 0.078125 0  0.328125 0.078125 0  0.34375 0.078125 0  0.359375 0.078125 0  0.375 0.078125 0  0.390625 0.078125 0  0.40625 0.078125 0  0.421875 0.078125 0  0.4375 0.078125 0  0.453125 0.078125 0  0.46875 0.078125 0  0.484375 0.078125 0  0.5 0.078125 0  0.515625 0.078125 0  0.53125 0.078125 0  0.546875 0.078125 0  0.5625 0.078125 0  0.578125 0.078125 0  0.59375 0.078125 0  0.609375 0.078125 0  0.625 0.078125 0  0.640625 0.078125 0  0.65625 0.078125 0  0.671875 0.078125 0  0.6875 0.078125 0  0.703125 0.078125 0  0.71875 0.078125 0  0.734375 0.078125 0  0.75 0.078125 0  0.765625 0.078125 0  0.78125 0.078125 0  0.796875 0.078125 0  0.8125 0.078125 0  0.828125 0.078125 0  0.84375 0.078125 0  0.859375 0.078125 0  0.875 0.078125 0  0.890625 0.078125 0  0.90625 0.078125 0  0.921875 0.078125 0  0.9375 0.078125 0  0.953125 0.078125 0  0.96875 0.078125 0  0.984375 0.078125 0  1 0.078125 0  0 0.09375 0  0.015625 0.09375 0  0.03125 0.09375 0  0.046875 0.09375 0  0.0625 0.09375 0  0.078125 0.09375 0  0.09375 0.09375 0  0.109375 0.09375 0  0.125 0.09375 0  0.140625 0.09375 0  0.15625 0.09375 0  0.171875 0.09375 0  0.1875 0.09375 0  0.203125 0.09375 0  0.21875 0.09375 0  0.234375 0.09375 0  0.25 0.09375 0  0.265625 0.09375 0  0.28125 0.09375 0  0.296875 0.09375 0  0.3125 0.09375 0  0.328125 0.09375 0  0.34375 0.09375 0  0.359375 0.09375 0  0.375 0.09375 0  0.390625 0.09375 0  0.40625 0.09375 0  0.421875 0.09375 0  0.4375 0.09375 0  0.453125 0.09375 0  0.46875 0.09375 0  0.484375 0.09375 0  0.5 0.09375 0  0.515625 0.09375 0  0.53125 0.09375 0  0.546875 0.09375 0  0.5625 0.09375 0  0.578125 0.09375 0  0.59375 0.09375 0  0.609375 0.09375 0  0.625 0.09375 0  0.640625 0.09375 0  0.65625 0.09375 0  0.671875 0.09375 0  0.6875 0.09375 0  0.703125 0.09375 0  0.71875 0.09375 0  0.734375 0.09375 0  0.75 0.09375 0  0.765625 0.09375 0  0.78125 0.09375 0  0.796875 0.09375 0  0.8125 0.09375 0  0.828125 0.09375 0  0.84375 0.09375 0  0.859375 0.09375 0  0.875 0.09375 0  0.890625 0.09375 0  0.90625 0.09375 0  0.921875 0.09375 0  0.9375 0.09375 0  0.953125 0.09375 0  0.96875 0.09375 0  0.984375 0.09375 0  1 0.09375 0  0 0.109375 0  0.015625 0.109375 0  0.03125 0.109375 0  0.046875 0.109375 0  0.0625 0.109375 0  0.078125 0.109375 0  0.09375 0.109375 0  0.109375 0.109375 0  0.125 0.109375 0  0.140625 0.109375 0  0.15625 0.109375 0  0.171875 0.109375 0  0.1875 0.109375 0  0.203125 0.109375 0  0.21875 0.109375 0  0.234375 0.109375 0  0.25 0.109375 0  0.265625 0.109375 0  0.28125 0.109375 0  0.296875 0.109375 0  0.3125 0.109375 0  0.328125 0.109375 0  0.34375 0.109375 0  0.359375 0.109375 0  0.375 0.109375 0  0.390625 0.109375 0  0.40625 0.109375 0  0.421875 0.109375 0  0.4375 0.109375 0  0.453125 0.109375 0  0.46875 0.109375 0  0.484375 0.109375 0  0.5 0.109375 0  0.515625 0.109375 0  0.53125 0.109375 0  0.546875 0.109375 0  0.5625 0.109375 0  0.578125 0.109375 0  0.59375 0.109375 0  0.609375 0.109375 0  0.625 0.109375 0  0.640625 0.109375 0  0.65625 0.109375 0  0.671875 0.109375 0  0.6875 0.109375 0  0.703125 0.109375 0  0.71875 0.109375 0  0.734375 0.109375 0  0.75 0.109375 0  0.765625 0.109375 0  0.78125 0.109375 0  0.796875 0.109375 0  0.8125 0.109375 0  0.828125 0.109375 0  0.84375 0.109375 0  0.859375 0.109375 0  0.875 0.109375 0  0.890625 0.109375 0  0.90625 0.109375 0  0.921875 0.109375 0  0.9375 0.109375 0  0.953125 0.109375 0  0.96875 0.109375 0  0.984375 0.109375 0  1 0.109375 0  0 0.125 0  0.015625 0.125 0  0.03125 0.125 0  0.046875 0.125 0  0.0625 0.125 0  0.078125 0.125 0  0.09375 0.125 0  0.109375 0.125 0  0.125 0.12
[...]
<CellData  Scalars="f_867"> 
<DataArray  type="Float64"  Name="f_867"  format="ascii">1.3098234126408450e-14   2.7619792995394153e-14   1.3423223855987019e-14   2.8224446011201569e-14   1.3424337697169655e-14   2.8161793384234832e-14   1.3424343786769083e-14   2.8161448988951379e-14   1.3424343769602862e-14   2.8161447031879436e-14   1.3424343777076164e-14   2.8161446917810515e-14   1.3424343801332222e-14   2.8161446870558722e-14   1.3424343724100483e-14   2.8161447029754014e-14   1.3424343799426828e-14   2.8161446884344486e-14   1.3424343779926021e-14   2.8161446808337633e-14   1.3424343783993940e-14   2.8161446888331143e-14   1.3424343895768850e-14   2.8161446920999299e-14   1.3424343910722306e-14   2.8161446881320444e-14   1.3424343805993631e-14   2.8161446974074807e-14   1.3424343870906903e-14   2.8161446912661967e-14   1.3424343828432589e-14   2.8161446874563500e-14   1.3424343869586056e-14   2.8161446955322003e-14   1.3424343740618814e-14   2.8161446925804989e-14   1.3424343796073426e-14   2.8161446906713867e-14   1.3424343780111266e-14   2.8161446871253932e-14   1.3424343836489495e-14   2.8161446831475855e-14   1.3424343759004058e-14   2.8161446762499387e-14   1.3424343784037676e-14   2.8161446792846346e-14   1.3424343692350477e-14   2.8161447060072921e-14   1.3424343772917391e-14   2.8161447036110024e-14   1.3424343843154240e-14   2.8161446872352254e-14   1.3424343907961965e-14   2.8161446863127538e-14   1.3424343754189705e-14   2.8161446843774751e-14   1.3424343666889880e-14   2.8161447043951273e-14   1.3424343814889680e-14   2.8161447030751674e-14   1.3424343770473507e-14   2.8161446979112498e-14   1.3424343849218286e-14   2.8161446916589932e-14   1.3424343787128991e-14   2.8161446778421484e-14   1.3424343788395866e-14   2.8161447084984435e-14   1.3424343772009694e-14   2.8161447008442126e-14   1.3424343744690379e-14   2.8161446939779136e-14   1.3424343868455778e-14   2.8161447085935151e-14   1.3424343826669317e-14   2.8161446914286067e-14   1.3424343799257207e-14   2.8161446982671510e-14   1.3424343739023210e-14   2.8161446929621388e-14   1.3424343817752717e-14   2.8161447062677711e-14   1.3424343754786051e-14   2.8161446820038722e-14   1.3424343736234420e-14   2.8161446939207739e-14   1.3424343728035094e-14   2.8161446954575825e-14   1.3424344051796203e-14   2.8161447089347277e-14   1.3424343804967643e-14   2.8161446822744818e-14   1.3424343733638536e-14   2.8161446942453962e-14   1.3424343704957256e-14   2.8161447022458676e-14   1.3424343793843894e-14   2.8161446950787804e-14   1.3424343823603726e-14   2.8161446940060819e-14   1.3424343796143783e-14   2.8161446828393365e-14   1.3424343813795237e-14   2.8161447072338941e-14   1.3424343876766770e-14   2.8161446932501468e-14   1.3424343770614420e-14   2.8161446827333833e-14   1.3424343822782962e-14   2.8161446756902372e-14   1.3424343722462104e-14   2.8161446874553624e-14   1.3424343824996860e-14   2.8161446922477104e-14   1.3424343836539864e-14   2.8161446806081762e-14   1.3424343844931053e-14   2.8161446978499708e-14   1.3424343722035531e-14   2.8161446819896866e-14   1.3424342566569669e-14   2.8161446924423946e-14   1.3424107660372412e-14   2.8161421801944655e-14   1.3351804603101137e-14   2.8156893466587699e-14   1.1333395854547565e-14   2.6419981082592582e-14   1.2925040535721177e-13   1.7069429967943382e-13   1.3527393299010277e-13   1.7871183148640301e-13   1.3527233658289442e-13   1.7858667384437830e-13   1.3527232802648091e-13   1.7858577712883280e-13   1.3527232877494795e-13   1.7858577338326621e-13   1.3527232846815297e-13   1.7858577265677179e-13   1.3527232786458000e-13   1.7858577278812652e-13   1.3527232720970690e-13   1.7858577144340234e-13   1.3527232778154848e-13   1.7858577259920756e-13   1.3527232790457244e-13   1.7858577384477430e-13   1.3527232758885410e-13   1.7858577195057897e-13   1.3527232821109481e-13   1.7858577322894026e-13   1.3527232747657466e-13   1.7858577257355209e-13   1.3527232743012824e-13   1.7858577174063902e-13   1.3527232809091979e-13   1.7858577354476247e-13   1.3527232780804368e-13   1.7858577167851727e-13   1.3527232966903729e-13   1.7858577193590870e-13   1.3527232785132615e-13   1.7858577164388065e-13   1.3527232795703179e-13   1.7858577308689377e-13   1.3527232826500208e-13   1.7858577280965690e-13   1.3527232879490981e-13   1.7858577242792703e-13   1.3527232816091621e-13   1.7858577290885397e-13   1.3527232832173567e-13   1.7858577294695906e-13   1.3527232830295346e-13   1.7858577217456000e-13   1.3527232860621128e-13   1.7858577217177299e-13   1.3527232766774415e-13   1.7858577167439667e-13   1.3527232704893707e-13   1.7858577238587842e-13   1.3527232883565490e-13   1.7858577122840771e-13   1.3527232775978408e-13   1.7858577231185083e-13   1.3527232732775149e-13   1.7858577222841320e-13   1.3527232884881050e-13   1.7858577270162168e-13   1.3527232817795003e-13   1.7858577065281841e-13   1.3527232745425171e-13   1.7858577086607051e-13   1.3527232903927996e-13   1.7858577086111788e-13   1.3527232721387943e-13   1.7858577232324266e-13   1.3527232697669700e-13   1.7858577301796767e-13   1.3527232816072628e-13   1.7858577317827948e-13   1.3527232885753295e-13   1.7858577121191519e-13   1.3527232825587515e-13   1.7858577139098098e-13   1.3527232837424856e-13   1.7858577217586249e-13   1.3527232839117449e-13   1.7858577206869050e-13   1.3527232847693571e-13   1.7858577125048556e-13   1.3527232812275130e-13   1.7858577245764664e-13   1.3527232812975782e-13   1.7858577213433428e-13   1.3527232856580211e-13   1.7858577202705566e-13   1.3527232724197719e-13   1.7858577251115281e-13   1.3527232769498159e-13   1.7858577254876192e-13   1.3527232897800630e-13   1.7858577208876649e-13   1.3527232901488334e-13   1.7858577143832228e-13   1.3527232801958632e-13   1.7858577078270445e-13   1.3527232807553518e-13   1.7858577248334073e-13   1.3527232875827004e-13   1.7858577228102192e-13   1.3527232785115575e-13   1.7858577197068682e-13   1.3527232745188361e-13   1.7858577226053322e-13   1.3527232806227619e-13   1.7858577253772968e-13   1.3527232806606555e-13   1.7858577186219423e-13   1.3527232805685385e-13   1.7858577195953730e-13   1.3527232847877932e-13   1.7858577214360462e-13   1.3527232891739914e-13   1.7858577153673978e-13   1.3527232873485685e-13   1.7858577168593464e-13   1.3527232361757230e-13   1.7858577076498396e-13   1.3527153418046732e-13   1.7858573165001615e-13   1.3499228492329743e-13   1.7857821676062395e-13   1.2331999973644722e-13   1.6849762906910962e-13   3.7026063051433865e-13   4.3551734322434048e-13   3.8876428326414460e-13   4.5922949444411315e-13   3.8875980299675079e-13   4.5911761252633629e-13   3.8875977684364142e-13   4.5911619821313609e-13   3.8875977899685672e-13   4.5911618889839647e-13   3.8875977649175064e-13   4.5911618746716429e-13   3.8875977890165795e-13   4.5911618579341895e-13   3.8875977659987481e-13   4.5911618248461218e-13   3.8875977721929961e-13   4.5911618593096630e-13   3.8875977982224777e-13   4.5911618514575803e-13   3.8875977862899813e-13   4.5911618618563756e-13   3.8875977736323777e-13   4.5911618615671077e-13   3.8875977691489037e-13   4.5911618410081496e-13   3.8875977747229096e-13   4.5911618856847399e-13   3.8875977856690062e-13   4.5911618573058260e-13   3.8875977573907762e-13   4.5911618451177882e-13   3.8875977874330910e-13   4.5911618841884073e-13   3.8875977709647490e-13   4.5911618525058874e-13   3.8875977828488807e-13   4.5911618602391921e-13   3.8875977783449469e-13   4.5911618541955916e-13   3.8875977792459361e-13   4.5911618586613016e-13   3.8875977996753929e-13   4.5911618787289416e-13   3.8875977769071516e-13   4.5911618596176383e-13   3.8875977637371518e-13   4.5911618749080831e-13   3.8875977736141841e-13   4.5911618846650409e-13   3.8875977672089254e-13   4.5911618687996097e-13   3.8875977784065220e-13   4.5911618523489846e-13   3.8875977491110911e-13   4.5911618774259695e-13   3.8875977616956475e-13   4.5911618843794990e-13   3.8875977603416951e-13   4.5911618825253442e-13   3.8875977569072416e-13   4.5911618916234777e-13   3.8875977357693039e-13   4.5911618842902449e-13   3.8875977772275518e-13   4.5911618778420580e-13   3.8875977575170591e-13   4.5911618931987145e-13   3.8875977706979277e-13   4.5911618975234898e-13   3.8875977904709966e-13   4.5911618801078906e-13   3.8875977731498452e-13   4.5911618526132442e-13   3.8875977934628000e-13   4.5911618881946403e-13   3.8875977750987613e-13   4.5911618612971987e-13   3.8875977561204991e-13   4.5911619065652524e-13   3.8875977744303636e-13   4.5911618762309682e-13   3.8875977965756330e-13   4.5911618767151506e-13   3.8875977622835319e-13   4.5911618687355254e-13   3.8875977930975036e-13   4.5911618437513630e-13   3.8875977732974947e-13   4.5911618572634169e-13   3.8875978055512520e-13   4.5911618936631302e-13   3.8875977960648742e-13   4.5911618246950634e-13   3.8875977701465919e-13   4.5911618359232486e-13   3.8875977583363213e-13   4.5911618987676565e-13   3.8875977662652711e-13   4.5911618678708904e-13   3.8875977658516510e-13   4.5911618799534930e-13   3.8875977563391633e-13   4.5911618430812932e-13   3.8875977789843241e-13   4.5911618700474831e-13   3.8875977731047890e-13   4.5911618738169529e-13   3.8875977809597136e-13   4.5911618873190911e-13   3.8875977720628635e-13   4.5911618707131687e-13   3.8875977933670113e-13   4.5911618629046018e-13   3.8875977855744449e-13   4.5911618532909466e-13   3.8875977832791913e-13   4.5911618711273184e-13   3.8875977743630603e-13   4.5911618382501535e-13   3.8875977029796362e-13   4.5911618745976944e-13   3.8875844748484316e-13   4.5911612780152518e-13   3.8821358736799146e-13   4.5910582142987673e-13   3.5857456130142278e-13   4.3401600575452711e-13   7.2693131146144583e-13   8.1182662572912826e-13   7.6424964786567066e-13   8.5895138636189014e-13   7.6424254261230358e-13   8.5892838042032182e-13   7.6424249801829842e-13   8.5892649944542271e-13   7.6424249766329344e-13   8.5892649116987812e-13   7.6424249603832863e-13   8.5892649175646933e-13   7.6424249412770580e-13   8.5892649018067593e-13   7.6424249240615463e-13   8.5892649113483442e-13   7.6424249731655674e-13   8.5892649390389159e-13   7.6424250017271385e-13   8.5892649259953732e-13   7.6424249194326448e-13   8.5892648960238055e-13   7.6424250203239712e-13   8.5892649509403930e-13   7.6424249924517842e-13   8.5892648953070493e-13   7.6424250003543388e-13   8.5892648257059975e-13   7.6424249976452576e-13   8.5892648797609661e-13   7.6424250255855447e-13   8.5892648776116678e-13   7.6424249903499487e-13   8.5892648633725997e-13   7.6424249748576536e-13   8.5892649065827317e-13   7.6424249623154053e-13   8.5892649433861247e-13   7.6424249262494128e-13   8.5892649446005585e-13   7.6424249797357361e-13   8.5892649401338831e-13   7.6424249942412559e-13   8.5892649457742583e-13   7.6424250155814343e-13   8.5892648480686618e-13   7.6424249945002083e-13   8.5892648516393860e-13   7.6424249385436684e-13   8.5892649313501984e-13   7.6424250012309654e-13   8.5892649428765008e-13   7.6424249976740656e-13   8.5892648772073156e-13   7.6424250431858569e-13   8.5892649246468699e-13   7.6424250384425890e-13   8.5892648469664184e-13   7.6424249923346268e-13   8.5892648377046895e-13   7.6424249463146788e-13   8.5892648777767101e-13   7.6424250129919137e-13   8.5892649191602643e-13   7.6424250379241966e-13   8.5892648801128208e-13   7.6424249135249162e-13   8.5892648654870216e-13   7.6424249168572263e-13   8.5892649092727741e-13   7.6424249862218651e-13   8.5892649346787058e-13   7.6424249926584541e-13   8.5892648947715841e-13   7.6424250014774929e-13   8.5892649368396889e-13   7.6424250212762659e-13   8.5892648886188840e-13   7.6424249842892341e-13   8.5892648125505239e-13   7.6424250445088329e-13   8.5892649213268616e-13   7.6424249762451097e-13   8.5892648093396283e-13   7.6424249627394293e-13   8.5892649169203386e-13   7.6424249342166726e-13   8.5892649251055957e-13   7.6424249680952753e-13   8.5892649095403214e-13   7.6424250008059024e-13   8.5892648669936596e-13   7.6424249203533437e-13   8.5892648979485625e-13   7.6424250161269757e-13   8.5892649262607254e-13   7.6424249644470807e-13   8.5892648916490338e-13   7.6424249305778272e-13   8.5892648632296687e-13   7.6424249954466586e-13   8.5892648678474913e-13   7.6424250022230026e-13   8.5892648873033438e-13   7.6424249573640195e-13   8.5892648986516701e-13   7.6424249656923863e-13   8.5892648711674673e-13   7.6424249924645635e-13   8.5892649063973673e-13   7.6424250438659323e-13   8.5892649083628007e-13   7.6424249940810715e-13   8.5892648969267067e-13   7.6424250002511320e-13   8.5892649017135217e-13   7.6424250503177229e-13   8.5892648813810608e-13   7.6424249524378985e-13   8.5892649055921849e-13   7.6424249427417322e-13   8.5892649171976481e-13   7.6424068982471415e-13   8.5892641401541771e-13   7.6337986799037935e-13   8.5891361759399004e-13   7.0827894147417903e-13   8.1273181905515790e-13   1.1855422750941565e-12   1.2851595201444014e-12   1.2472880383433374e-12   1.3625156207491243e-12   1.2472786642934144e-12   1.3626536895225814e-12   1.2472786054814603e-12   1.3626514115614857e-12   1.2472786127268088e-12   1.3626514108800607e-12   1.2472786099201427e-12   1.3626514016983473e-12   1.2472786104884798e-12   1.3626514040775703e-12   1.2472786041682727e-12   1.3626514106123305e-12   1.2472786154780759e-12   1.3626514171369637e-12   1.2472786112911114e-12   1.3626514028450421e-12   1.2472786141982611e-12   1.3626514043682132e-12   1.2472786122826344e-12   1.3626514074967779e-12   1.2472786187207410e-12   1.3626513991180609e-12   1.2472786070407274e-12   1.3626513948641328e-12   1.2472786157765286e-12   1.3626514073392895e-12   1.2472786180937042e-12   1.3626514114003400e-12   1.2472786124454436e-12   1.3626513983796631e-12   1.2472786163247924e-12   1.3626514155274044e-12   1.2472786244447992e-12   1.3626514098428534e-12   1.2472786177738765e-12   1.3626513973517813e-12   1.2472786166610197e-12   1.3626514040216645e-12   1.2472786129965333e-12   1.3626513930807213e-12   1.2472786104521172e-12   1.3626514036958693e-12   1.2472786141071700e-12   1.3626514144704871e-12   1.2472786164664927e-12   1.3626514024676945e-12   1.2472786175731903e-12   1.3626514033909012e-12   1.2472786094522011e-12   1.3626514027712510e-12   1.2472786128003745e-12   1.3626514103605649e-12   1.2472786040465473e-12   1.3626514052345815e-12   1.2472786193718832e-12   1.3626514074784047e-12   1.2472786074066569e-12   1.3626514068074065e-12   1.2472786134671877e-12   1.3626514066715837e-12   1.2472786172539973e-12   1.3626514029496946e-12   1.2472786162119509e-12   1.3626514002058802e-12   1.2472786102637840e-12   1.3626514097364007e-12   1.2472786174374717e-12   1.3626514109712509e-12   1.2472786198585165e-12   1.3626514015002296e-12   1.2472786140489582e-12   1.3626513968263383e-12   1.2472786156677844e-12   1.3626514059413890e-12   1.2472786120458273e-12   1.3626514048169074e-12   1.2472786132806698e-12   1.3626514109272442e-12   1.2472786092539162e-12   1.3626514036560350e-12   1.2472786247559598e-12   1.3626514093349857e-12   1.2472786123831861e-12   1.3626513925613462e-12   1.2472786055309031e-12   1.3626514108226614e-12   1.2472786155821914e-12   1.3626514098176100e-12   1.2472786164645350e-12   1.3626514006799910e-12   1.2472786210349785e-12   1.3626514036091815e-12   1.2472786079285709e-12   1.3626514056654720e-12   1.2472786092631685e-12   1.3626514068341218e-12   1.2472786145364281e-12   1.3626514105215723e-12   1.2472786090023774e-12   1.3626514116641803e-12   1.2472786202157325e-12   1.3626514045905350e-12   1.2472786117503368e-12   1.3626514055700093e-12   1.2472786146839502e-12   1.3626513984999147e-12   1.2472786126756892e-12   1.3626514056449431e-12   1.2472786187700554e-12   1.3626514096351186e-12   1.2472786140451265e-12   1.3626513976687278e-12   1.2472786100501708e-12   1.3626514047717243e-12   1.2472786167264962e-12   1.3626514225442398e-12   1.2472786036307648e-12   1.3626513971185867e-12   1.2472763883671697e-12   1.3626513237402839e-12   1.2460613800145583e-12   1.3626364360950383e-12   1.1589862996886683e-12   1.2900905080502725e-12   1.7284692143510462e-12   1.8373261138021628e-12   1.8193164150099098e-12   1.9505705243326839e-12   1.8193052411942140e-12   1.9509356535352884e-12   1.8193051836976449e-12   1.9509330772563195e-12   1.8193052033659707e-12   1.9509330720517863e-12   1.8193051847272590e-12   1.9509330486702108e-12   1.8193051796754101e-12   1.9509330653657880e-12   1.8193051805343616e-12   1.9509330570897943e-12   1.8193052011648613e-12   1.9509330558538358e-12   1.8193051661552032e-12   1.9509330550895625e-12   1.8193051906448529e-12   1.9509330733974250e-12   1.8193051731035106e-12   1.9509330574126698e-12   1.8193051854930384e-12   1.9509330663854473e-12   1.8193051890236646e-12   1.9509330689831510e-12   1.8193051849790345e-12   1.9509330572336320e-12   1.8193051738702489e-12   1.9509330738591174e-12   1.8193051650644331e-12   1.9509330755322703e-12   1.8193051827248365e-12   1.9509330741022637e-12   1.8193051778292944e-12   1.9509330707334616e-12   1.8193051869033426e-12   1.9509330688511038e-12   1.8193051868845646e-12   1.9509330740924882e-12   1.8193051847375390e-12   1.9509330585948349e-12   1.8193051858515477e-12   1.9509330665603564e-12   1.8193051812305706e-12   1.9509330640269801e-12   1.8193051759321605e-12   1.9509330573577730e-12   1.8193051850253392e-12   1.9509330684905290e-12   1.8193051864925012e-12   1.9509330525534078e-12   1.8193051917138005e-12   1.9509330558254031e-12   1.8193051738392054e-12   1.9509330578448026e-12   1.8193051824010635e-12   1.9509330717343049e-12   1.8193051762803543e-12   1.9509330627376967e-12   1.8193051760055740e-12   1.9509330687600461e-12   1.8193051977180453e-12   1.9509330656548384e-12   1.8193051757942694e-12   1.9509330493980817e-12   1.8193051804464798e-12   1.9509330555902180e-12   1.8193051803425014e-12   1.9509330749053482e-12   1.8193051924566685e-12   1.9509330767118602e-12   1.8193051709238368e-12   1.9509330647933399e-12   1.8193051891472033e-12   1.9509330730960332e-12   1.8193051845802640e-12   1.9509330540716986e-12   1.8193051848779286e-12   1.9509330680618451e-12   1.8193051833055249e-12   1.9509330543701783e-12   1.8193051950934892e-12   1.9509330542573114e-12   1.8193051721564890e-12   1.9509330410609687e-12   1.8193052153352875e-12   1.9509330708990063e-12   1.8193051877254817e-12   1.9509330296163845e-12   1.8193051696787474e-12   1.9509330636749763e-12   1.8193051897334699e-12   1.9509330662550524e-12   1.8193051841085380e-12   1.9509330569300887e-12   1.8193051822920469e-12   1.9509330631579606e-12   1.8193051883822417e-12   1.9509330541602809e-12   1.8193051839109484e-12   1.9509330605564250e-12   1.8193051914494779e-12   1.9509330592916816e-12   1.8193051762985709e-12   1.9509330659511585e-12   1.8193051786754336e-12   1.9509330634373877e-12   1.8193051837033241e-12   1.9509330696206173e-12   1.8193051877003577e-12   1.9509330758546539e-12   1.8193051950905206e-12   1.9509330620100944e-12   1.8193051896432317e-12   1.9509330558393323e-12   1.8193051792875795e-12   1.9509330602924611e-12   1.8193051690423701e-12   1.9509330803310973e-12   1.8193026106325392e-12   1.9509329848734129e-12   1.8177088118695301e-12   1.9509164882495766e-12   1.6933761050844060e-12   1.8477474601667127e-12   2.3348477472051435e-12   2.4471069360596515e-12   2.4583520927582740e-12   2.6005174611097688e-12   2.4583396214565141e-12   2.6011669189801294e-12   2.4583395453602857e-12   2.6011641351124924e-12   2.4583395513020420e-12   2.6011641312451920e-12   2.4583395512061751e-12   2.6011641258642512e-12   2.4583395428259017e-12   2.6011641140907359e-12   2.4583395240987685e-12   2.6011641277518782e-12   2.4583395292179300e-12   2.6011641589806589e-12   2.4583395511347609e-12   2.6011641317852706e-12   2.4583395469897294e-12   2.6011641139822436e-12   2.4583395566647020e-12   2.6011641300291355e-12   2.4583395355404066e-12   2.6011641354327042e-12   2.4583395288626280e-12   2.6011641332083428e-12   2.458339551882