<?xml version="1.0"?>
<VTKFile type="UnstructuredGrid"  version="0.1"  >
<UnstructuredGrid>
<Piece  NumberOfPoints="16641" NumberOfCells="32768">
<Points>
<DataArray  type="Float64"  NumberOfComponents="3"  format="ascii">0 0 0  0.0078125 0 0  0.015625 0 0  0.0234375 0 0  0.03125 0 0  0.0390625 0 0  0.046875 0 0  0.0546875 0 0  0.0625 0 0  0.0703125 0 0  0.078125 0 0  0.0859375 0 0  0.09375 0 0  0.1015625 0 0  0.109375 0 0  0.1171875 0 0  0.125 0 0  0.1328125 0 0  0.140625 0 0  0.1484375 0 0  0.15625 0 0  0.1640625 0 0  0.171875 0 0  0.1796875 0 0  0.1875 0 0  0.1953125 0 0  0.203125 0 0  0.2109375 0 0  0.21875 0 0  0.2265625 0 0  0.234375 0 0  0.2421875 0 0  0.25 0 0  0.2578125 0 0  0.265625 0 0  0.2734375 0 0  0.28125 0 0  0.2890625 0 0  0.296875 0 0  0.3046875 0 0  0.3125 0 0  0.3203125 0 0  0.328125 0 0  0.3359375 0 0  0.34375 0 0  0.3515625 0 0  0.359375 0 0  0.3671875 0 0  0.375 0 0  0.3828125 0 0  0.390625 0 0  0.3984375 0 0  0.40625 0 0  0.4140625 0 0  0.421875 0 0  0.4296875 0 0  0.4375 0 0  0.4453125 0 0  0.453125 0 0  0.4609375 0 0  0.46875 0 0  0.4765625 0 0  0.484375 0 0  0.4921875 0 0  0.5 0 0  0.5078125 0 0  0.515625 0 0  0.5234375 0 0  0.53125 0 0  0.5390625 0 0  0.546875 0 0  0.5546875 0 0  0.5625 0 0  0.5703125 0 0  0.578125 0 0  0.5859375 0 0  0.59375 0 0  0.6015625 0 0  0.609375 0 0  0.6171875 0 0  0.625 0 0  0.6328125 0 0  0.640625 0 0  0.6484375 0 0  0.65625 0 0  0.6640625 0 0  0.671875 0 0  0.6796875 0 0  0.6875 0 0  0.6953125 0 0  0.703125 0 0  0.7109375 0 0  0.71875 0 0  0.7265625 0 0  0.734375 0 0  0.7421875 0 0  0.75 0 0  0.7578125 0 0  0.765625 0 0  0.7734375 0 0  0.78125 0 0  0.7890625 0 0  0.796875 0 0  0.8046875 0 0  0.8125 0 0  0.8203125 0 0  0.828125 0 0  0.8359375 0 0  0.84375 0 0  0.8515625 0 0  0.859375 0 0  0.8671875 0 0  0.875 0 0  0.8828125 0 0  0.890625 0 0  0.8984375 0 0  0.90625 0 0  0.9140625 0 0  0.921875 0 0  0.9296875 0 0  0.9375 0 0  0.9453125 0 0  0.953125 0 0  0.9609375 0 0  0.96875 0 0  0.9765625 0 0  0.984375 0 0  0.9921875 0 0  1 0 0  0 0.0078125 0  0.0078125 0.0078125 0  0.015625 0.0078125 0  0.0234375 0.0078125 0  0.03125 0.0078125 0  0.0390625 0.0078125 0  0.046875 0.0078125 0  0.0546875 0.0078125 0  0.0625 0.0078125 0  0.0703125 0.0078125 0  0.078125 0.0078125 0  0.0859375 0.0078125 0  0.09375 0.0078125 0  0.1015625 0.0078125 0  0.109375 0.0078125 0  0.1171875 0.0078125 0  0.125 0.0078125 0  0.1328125 0.0078125 0  0.140625 0.0078125 0  0.1484375 0.0078125 0  0.15625 0.0078125 0  0.1640625 0.0078125 0  0.171875 0.0078125 0  0.1796875 0.0078125 0  0.1875 0.0078125 0  0.1953125 0.0078125 0  0.203125 0.0078125 0  0.2109375 0.0078125 0  0.21875 0.0078125 0  0.2265625 0.0078125 0  0.234375 0.0078125 0  0.2421875 0.0078125 0  0.25 0.0078125 0  0.2578125 0.0078125 0  0.265625 0.0078125 0  0.2734375 0.0078125 0  0.28125 0.0078125 0  0.2890625 0.0078125 0  0.296875 0.0078125 0  0.3046875 0.0078125 0  0.3125 0.0078125 0  0.3203125 0.0078125 0  0.328125 0.0078125 0  0.3359375 0.0078125 0  0.34375 0.0078125 0  0.3515625 0.0078125 0  0.359375 0.0078125 0  0.3671875 0.0078125 0  0.375 0.0078125 0  0.3828125 0.0078125 0  0.390625 0.0078125 0  0.3984375 0.0078125 0  0.40625 0.0078125 0  0.4140625 0.0078125 0  0.421875 0.0078125 0  0.4296875 0.0078125 0  0.4375 0.0078125 0  0.4453125 0.0078125 0  0.453125 0.0078125 0  0.4609375 0.0078125 0  0.46875 0.0078125 0  0.4765625 0.0078125 0  0.484375 0.0078125 0  0.4921875 0.0078125 0  0.5 0.0078125 0  0.5078125 0.0078125 0  0.515625 0.0078125 0  0.5234375 0.0078125 0  0.53125 0.0078125 0  0.5390625 0.0078125 0  0.546875 0.0078125 0  0.5546875 0.0078125 0  0.5625 0.0078125 0  0.5703125 0.0078125 0  0.578125 0.0078125 0  0.5859375 0.0078125 0  0.59375 0.0078125 0  0.6015625 0.0078125 0  0.609375 0.0078125 0  0.6171875 0.0078125 0  0.625 0.0078125 0  0.6328125 0.0078125 0  0.640625 0.0078125 0  0.6484375 0.0078125 0  0.65625 0.0078125 0  0.6640625 0.0078125 0  0.671875 0.0078125 0  0.6796875 0.0078125 0  0.6875 0.0078125 0  0.6953125 0.0078125 0  0.703125 0.0078125 0  0.7109375 0.0078125 0  0.71875 0.0078125 0  0.7265625 0.0078125 0  0.734375 0.0078125 0  0.7421875 0.0078125 0  0.75 0.0078125 0  0.7578125 0.0078125 0  0.765625 0.0078125 0  0.7734375 0.0078125 0  0.78125 0.0078125 0  0.7890625 0.0078125 0  0.796875 0.0078125 0  0.8046875 0.0078125 0  0.8125 0.0078125 0  0.8203125 0.0078125 0  0.828125 0.0078125 0  0.8359375 0.0078125 0  0.84375 0.0078125 0  0.8515625 0.0078125 0  0.859375 0.0078125 0  0.8671875 0.0078125 0  0.875 0.0078125 0  0.8828125 0.0078125 0  0.890625 0.0078125 0  0.8984375 0.0078125 0  0.90625 0.0078125 0  0.9140625 0.0078125 0  0.921875 0.0078125 0  0.9296875 0.0078125 0  0.9375 0.0078125 0  0.9453125 0.0078125 0  0.953125 0.0078125 0  0.9609375 0.0078125 0  0.96875 0.0078125 0  0.9765625 0.0078125 0  0.984375 0.0078125 0  0.9921875 0.0078125 0  1 0.0078125 0  0 0.015625 0  0.0078125 0.015625 0  0.015625 0.015625 0  0.0234375 0.015625 0  0.03125 0.015625 0  0.0390625 0.015625 0  0.046875 0.015625 0  0.0546875 0.015625 0  0.0625 0.015625 0  0.0703125 0.015625 0  0.078125 0.015625 0  0.0859375 0.015625 0  0.09375 0.015625 0  0.1015625 0.015625 0  0.109375 0.015625 0  0.1171875 0.015625 0  0.125 0.015625 0  0.1328125 0.015625 0  0.140625 0.015625 0  0.1484375 0.015625 0  0.15625 0.015625 0  0.1640625 0.015625 0  0.171875 0.015625 0  0.1796875 0.015625 0  0.1875 0.015625 0  0.1953125 0.015625 0  0.203125 0.015625 0  0.2109375 0.015625 0  0.21875 0.015625 0  0.2265625 0.015625 0  0.234375 0.015625 0  0.2421875 0.015625 0  0.25 0.015625 0  0.2578125 0.015625 0  0.265625 0.015625 0  0.2734375 0.015625 0  0.28125 0.015625 0  0.2890625 0.015625 0  0.296875 0.015625 0  0.3046875 0.015625 0  0.3125 0.015625 0  0.3203125 0.015625 0  0.328125 0.015625 0  0.3359375 0.015625 0  0.34375 0.015625 0  0.3515625 0.015625 0  0.359375 0.015625 0  0.3671875 0.015625 0  0.375 0.015625 0  0.3828125 0.015625 0  0.390625 0.015625 0  0.3984375 0.015625 0  0.40625 0.015625 0  0.4140625 0.015625 0  0.421875 0.015625 0  0.4296875 0.015625 0  0.4375 0.015625 0  0.4453125 0.015625 0  0.453125 0.015625 0  0.4609375 0.015625 0  0.46875 0.015625 0  0.4765625 0.015625 0  0.484375 0.015625 0  0.4921875 0.015625 0  0.5 0.015625 0  0.5078125 0.015625 0  0.515625 0.015625 0  0.5234375 0.015625 0  0.53125 0.015625 0  0.5390625 0.015625 0  0.546875 0.015625 0  0.5546875 0.015625 0  0.5625 0.015625 0  0.5703125 0.015625 0  0.578125 0.015625 0  0.5859375 0.015625 0  0.59375 0.015625 0  0.6015625 0.015625 0  0.609375 0.015625 0  0.6171875 0.015625 0  0.625 0.015625 0  0.6328125 0.015625 0  0.640625 0.015625 0  0.6484375 0.015625 0  0.65625 0.015625 0  0.6640625 0.015625 0  0.671875 0.015625 0  0.6796875 0.015625 0  0.6875 0.015625 0  0.6953125 0.015625 0  0.703125 0.015625 0  0.7109375 0.015625 0  0.71875 0.015625 0  0.7265625 0.015625 0  0.734375 0.015625 0  0.7421875 0.015625 0  0.75 0.015625 0  0.7578125 0.015625 0  0.765625 0.015625 0  0.7734375 0.015625 0  0.78125 0.015625 0  0.7890625 0.015625 0  0.796875 0.015625 0  0.8046875 0.015625 0  0.8125 0.015625 0  0.8203125 0.015625 0  0.828125 0.015625 0  0.8359375 0.015625 0  0.84375 0.015625 0  0.8515625 0.015625 0  0.859375 0.015625 0  0.8671875 0.015625 0  0.875 0.015625 0  0.8828125 0.015625 0  0.890625 0.015625 0  0.8984375 0.015625 0  0.90625 0.015625 0  0.9140625 0.015625 0  0.921875 0.015625 0  0.9296875 0.015625 0  0.9375 0.015625 0  0.9453125 0.015625 0  0.953125 0.015625 0  0.9609375 0.015625 0  0.96875 0.015625 0  0.9765625 0.015625 0  0.984375 0.015625 0  0.9921875 0.015625 0  1 0.015625 0  0 0.0234375 0  0.0078125 0.0234375 0  0.015625 0.0234375 0  0.0234375 0.0234375 0  0.03125 0.0234375 0  0.0390625 0.0234375 0  0.046875 0.0234375 0  0.0546875 0.0234375 0  0.0625 0.0234375 0  0.0703125 0.0234375 0  0.078125 0.0234375 0  0.0859375 0.0234375 0  0.09375 0.0234375 0  0.1015625 0.0234375 0  0.109375 0.0234375 0  0.1171875 0.0234375 0  0.125 0.0234375 0  0.1328125 0.0234375 0  0.140625 0.0234375 0  0.1484375 0.0234375 0  0.15625 0.0234375 0  0.1640625 0.0234375 0  0.171875 0.0234375 0  0.1796875 0.0234375 0  0.1875 0.0234375 0  0.1953125 0.0234375 0  0.203125 0.0234375 0  0.2109375 0.0234375 0  0.21875 0.0234375 0  0.2265625 0.0234375 0  0.234375 0.0234375 0  0.2421875 0.0234375 0  0.25 0.0234375 0  0.2578125 0.0234375 0  0.265625 0.0234375 0  0.2734375 0.0234375 0  0.28125 0.0234375 0  0.2890625 0.0234375 0  0.296875 0.0234375 0  0.3046875 0.0234375 0  0.3125 0.0234375 0  0.3203125 0.0234375 0  0.328125 0.0234375 0  0.3359375 0.0234375 0  0.34375 0.0234375 0  0.3515625 0.0234375 0  0.359375 0.0234375 0  0.3671875 0.0234375 0  0.375 0.0234375 0  0.3828125 0.0234375 0  0.390625 0.0234375 0  0.3984375 0.0234375 0  0.40625 0.0234375 0  0.4140625 0.0234375 0  0.421875 0.0234375 0  0.4296875 0.0234375 0  0.4375 0.0234375 0  0.4453125 0.0234375 0  0.453125 0.0234375 0  0.4609375 0.0234375 0  0.46875 0.0234375 0  0.4765625 0.0234375 0  0.484375 0.0234375 0  0.4921875 0.0234375 0  0.5 0.0234375 0  0.5078125 0.0234375 0  0.515625 0.0234375 0  0.5234375 0.0234375 0  0.53125 0.0234375 0  0.5390625 0.0234375 0  0.546875 0.0234375 0  0.5546875 0.0234375 0  0.5625 0.0234375 0  0.5703125 0.0234375 0  0.578125 0.0234375 0  0.5859375 0.0234375 0  0.59375 0.0234375 0  0.6015625 0.0234375 0  0.609375 0.0234375 0  0.6171875 0.0234375 0  0.625 0.0234375 0  0.6328125 0.0234375 0  0.640625 0.0234375 0  0.6484375 0.0234375 0  0.65625 0.0234375 0  0.6640625 0.0234375 0  0.671875 0.0234375 0  0.6796875 0.0234375 0  0.6875 0.0234375 0  0.6953125 0.0234375 0  0.703125 0.0234375 0  0.7109375 0.0234375 0  0.71875 0.0234375 0  0.7265625 0.0234375 0  0.734375 0.0234375 0  0.7421875 0.0234375 0  0.75 0.0234375 0  0.7578125 0.0234375 0  0.765625 0.0234375 0  0.7734375 0.0234375 0  0.78125 0.0234375 0  0.7890625 0.0234375 0  0.796875 0.0234375 0  0.8046875 0.0234375 0  0.8125 0.0234375 0  0.8203125 0.0234375 0  0.828125 0.0234375 0  0.8359375 0.0234375 0  0.84375 0.0234375 0  0.8515625 0.0234375 0  0.859375 0.0234375 0  0.8671
[...]
<CellData  Scalars="f_16766"> 
<DataArray  type="Float64"  Name="f_16766"  format="ascii">2.4169019484421659e-12   2.8958360201016218e-12   2.5582689695798756e-12   2.9632616382064318e-12   2.8036963185303245e-12   3.1340699594743682e-12   3.1526358268241790e-12   3.4081995289270635e-12   3.6042546443902739e-12   3.7849978058691147e-12   4.1574671725074472e-12   4.2635575263061556e-12   4.8109415412609117e-12   4.8427254074682414e-12   5.5631038311420719e-12   5.5211058538828909e-12   6.4121421778267187e-12   6.2970643900761473e-12   7.3560112476534330e-12   7.1687315546709290e-12   8.3924372100449818e-12   8.1340073673519374e-12   9.5189232360871164e-12   9.1905663655899812e-12   1.0732755523801846e-11   1.0335863194295226e-11   1.2031009841542968e-11   1.1567138730198776e-11   1.3410558575317657e-11   1.2881426724533340e-11   1.4868078265197928e-11   1.4275560946510981e-11   1.6400057612642519e-11   1.5746182809770228e-11   1.8002805939711407e-11   1.7289749462217117e-11   1.9672462080847122e-11   1.8902542321570452e-11   2.1405003684166417e-11   2.0580676032615852e-11   2.3196256901964469e-11   2.2320107827745209e-11   2.5041906445728538e-11   2.4116647266283772e-11   2.6937505982023757e-11   2.5965966329926974e-11   2.8878488844145287e-11   2.7863609848738846e-11   3.0860179032773365e-11   2.9805006235200197e-11   3.2877802481732035e-11   3.1785478495944332e-11   3.4926498558976918e-11   3.3800255500964400e-11   3.7001331775493923e-11   3.5844483476733506e-11   3.9097303676237289e-11   3.7913237699567416e-11   4.1209364880422927e-11   4.0001534359587579e-11   4.3332427248492829e-11   4.2104342567119352e-11   4.5461376136108011e-11   4.4216596473959307e-11   4.7591082718994680e-11   4.6333207474229980e-11   4.9716416348609785e-11   4.8449076468620378e-11   5.1832256908555094e-11   5.0559106141598837e-11   5.3933507154724066e-11   5.2658213247608824e-11   5.6015104990609299e-11   5.4741340853911815e-11   5.8072035665047563e-11   5.6803470523221148e-11   6.0099343851900744e-11   5.8839634404698847e-11   6.2092145588052164e-11   6.0844927200818141e-11   6.4045640039696389e-11   6.2814517985702789e-11   6.5955121068352149e-11   6.4743661843094728e-11   6.7815988565915579e-11   6.6627711295692755e-11   6.9623759540189775e-11   6.8462127503583636e-11   7.1374078912646914e-11   7.0242491197070551e-11   7.3062730010810336e-11   7.1964513324602297e-11   7.4685644725944778e-11   7.3624045383683723e-11   7.6238913314931853e-11   7.5217089415986991e-11   7.7718793817060263e-11   7.6739807639371746e-11   7.9121721070797030e-11   7.8188531691608840e-11   8.0444315301774369e-11   7.9559771469379759e-11   8.1683390265048380e-11   8.0850223536075105e-11   8.2835960919976760e-11   8.2056779080778046e-11   8.3899250623097496e-11   8.3176531403920809e-11   8.4870697815896792e-11   8.4206782924528322e-11   8.5747962197861888e-11   8.5145051676287712e-11   8.6528930362349466e-11   8.5989077287679919e-11   8.7211720888006783e-11   8.6736826427227082e-11   8.7794688873037444e-11   8.7386497701855042e-11   8.8276429896898100e-11   8.7936525995969336e-11   8.8655783402260500e-11   8.8385586243957705e-11   8.8931835494212023e-11   8.8732596618896030e-11   8.9103921138282216e-11   8.8976721144019589e-11   8.9171625766572445e-11   8.9117371700585699e-11   8.9134786271419534e-11   8.9154209450911975e-11   8.8993491401902554e-11   8.9087145647225453e-11   8.8748081551231546e-11   8.8916341853052666e-11   8.8399147932836513e-11   8.8642209550411375e-11   8.7947531158079379e-11   8.8265409147876385e-11   8.7394319210728022e-11   8.7786848390019683e-11   8.6740844828033434e-11   8.7207680171219026e-11   8.5988682286386233e-11   8.6529299759634323e-11   8.5139643611317295e-11   8.5753341432675868e-11   8.4195774210908238e-11   8.4881674541783687e-11   8.3159347950053011e-11   8.3916399008510643e-11   8.2032861669354000e-11   8.2859840267060647e-11   8.0819029173861435e-11   8.1714543658681531e-11   7.9520774691888071e-11   8.0483268304511423e-11   7.8141225832108054e-11   7.9168980454875203e-11   7.6683706048596946e-11   7.7774846343056886e-11   7.5151726634391703e-11   7.6304224561449933e-11   7.3548978261000944e-11   7.4760657965356526e-11   7.1879322090995927e-11   7.3147865143367877e-11   7.0146780471990344e-11   7.1469731454031160e-11   6.8355527247925837e-11   6.9730299669153895e-11   6.6509877705058108e-11   6.7933760231487351e-11   6.4614278174431697e-11   6.6084441162223797e-11   6.2673295321487310e-11   6.4186797632631680e-11   6.0691605144344027e-11   6.2245401232501503e-11   5.8673981707689791e-11   6.0264928955973986e-11   5.6625285643260714e-11   5.8250151934306831e-11   5.4550452439552893e-11   5.6205923941549083e-11   5.2454480551099679e-11   5.4137169702132521e-11   5.0342419358091539e-11   5.2048873025945411e-11   4.8219357001012844e-11   4.9946064802731941e-11   4.6090408123055784e-11   4.7833810881702471e-11   4.3960701549071576e-11   4.5717199867258628e-11   4.1835367928377891e-11   4.3601330861053686e-11   3.9719527376329230e-11   4.1491301176470911e-11   3.7618277138341927e-11   3.9392194059410185e-11   3.5536679310642280e-11   3.7309066442807484e-11   3.3479748645401928e-11   3.5246936763275317e-11   3.1452440468848412e-11   3.3210772871879999e-11   2.9459638744571596e-11   3.1205480065083569e-11   2.7506144307068586e-11   2.9235889269024422e-11   2.5596663295759656e-11   2.7306745399721236e-11   2.3735795818538626e-11   2.5422695933792357e-11   2.1928024868276376e-11   2.3588279711037221e-11   2.0177705523773457e-11   2.1807916000937896e-11   1.8489054457498597e-11   2.0085893855895890e-11   1.6866139777100002e-11   1.8426361778581342e-11   1.5312871224292924e-11   1.6833317728536514e-11   1.3832990756291531e-11   1.5310599490257360e-11   1.2430063529776225e-11   1.3861875428799719e-11   1.1107469311413109e-11   1.2490635652225099e-11   9.8683943346791281e-12   1.1200183604181069e-11   8.7158236222388376e-12   9.9936281068983711e-12   7.6525337923111184e-12   8.8738758717562902e-12   6.6810863669082899e-12   7.8436244975588840e-12   5.8038215966208052e-12   6.9053559719147792e-12   5.0228528175954715e-12   6.0613306899817769e-12   4.3400613523547210e-12   5.3135820032193268e-12   3.7570919619836935e-12   4.6639113048831961e-12   3.2753488332248599e-12   4.1138836466560710e-12   2.8959919760239571e-12   3.6648238288395473e-12   2.6199331028273081e-12   3.3178127922238467e-12   2.4478304710665550e-12   3.0736793645230712e-12   2.3798204403949598e-12   2.9330634135214028e-12   3.1847736847958869e-12   3.7341874031538272e-12   3.3236416078407104e-12   3.8000086263947728e-12   3.5648394371715665e-12   3.9673261030014277e-12   3.9077138474664430e-12   4.2359672366478046e-12   4.3514289706339533e-12   4.6052986398156338e-12   4.8949145560950185e-12   5.0744339036166272e-12   5.5368613238253157e-12   5.6422437116880230e-12   6.2757229344899066e-12   6.3073603451536991e-12   7.1097195340694116e-12   7.0681814733810079e-12   8.0368420326778798e-12   7.9228741673623047e-12   9.0548569585311655e-12   8.8693793575880068e-12   1.0161311850396250e-11   9.9054168026004492e-12   1.1353541174402943e-11   1.1028490581131444e-11   1.2628672750656935e-11   1.2235895101767607e-11   1.3983634676086630e-11   1.3524721618496210e-11   1.5415162726895415e-11   1.4891865235744300e-11   1.6919808223646842e-11   1.6334032387122761e-11   1.8493946339920349e-11   1.7847748768733191e-11   2.0133784835989688e-11   1.9429367708703751e-11   2.1835373193916575e-11   2.1075078951862986e-11   2.3594612135661200e-11   2.2780917838830589e-11   2.5407263498060048e-11   2.4542774856979841e-11   2.7268960443235798e-11   2.6356405541105212e-11   2.9175217978347806e-11   2.8217440697758205e-11   3.1121443760841326e-11   3.0121396932087703e-11   3.3102949161159544e-11   3.2063687447905338e-11   3.5114960558344208e-11   3.4039633098587794e-11   3.7152630839977040e-11   3.6044473658550496e-11   3.9211051079707827e-11   3.8073379292392000e-11   4.1285262361617119e-11   4.0121462188872117e-11   4.3370267729751920e-11   4.2183788337295114e-11   4.5461044222870309e-11   4.4255389413996050e-11   4.7552554977033642e-11   4.6331274750351032e-11   4.9639761359865540e-11   4.8406443357520650e-11   5.1717635107769700e-11   5.0475895971944062e-11   5.3781170441207519e-11   5.2534647101660051e-11   5.5825396122850268e-11   5.4577737034498142e-11   5.7845387433708042e-11   5.6600243788050557e-11   5.9836278038120044e-11   5.8597294966545901e-11   6.1793271705940371e-11   6.0564079498604031e-11   6.3711653867699380e-11   6.2495859227945888e-11   6.5586802974128594e-11   6.4387980327931134e-11   6.7414201625762461e-11   6.6235884513429996e-11   6.9189447458911874e-11   6.8035120021763089e-11   7.0908263751464884e-11   6.9781352335472631e-11   7.2566509724222420e-11   7.1470374629106847e-11   7.4160190518192709e-11   7.3098117899565860e-11   7.5685466815414543e-11   7.4660660771332270e-11   7.7138664093233823e-11   7.6154238940750062e-11   7.8516281470213646e-11   7.7575254248228286e-11   7.9815000147178331e-11   7.8920283341441286e-11   8.1031691396331652e-11   8.0186085929639396e-11   8.2163424102724655e-11   8.1369612582773138e-11   8.3207471821943974e-11   8.2468012080946528e-11   8.4161319352302041e-11   8.3478638284467575e-11   8.5022668791509389e-11   8.4399056505406629e-11   8.5789445073357328e-11   8.5227049375648483e-11   8.6459800966475507e-11   8.5960622188468466e-11   8.7032121525072435e-11   8.6598007702296965e-11   8.7505027978646051e-11   8.7137670399058496e-11   8.7877381053875312e-11   8.7578310185286832e-11   8.8148283720157644e-11   8.7918865519510308e-11   8.8317083349351513e-11   8.8158515975900201e-11   8.8383373286813347e-11   8.8296684214613154e-11   8.8346993837459727e-11   8.8333037375403638e-11   8.8208032637827170e-11   8.8267487881917854e-11   8.7966824461320033e-11   8.8100193646955690e-11   8.7623950398995747e-11   8.7831557697750857e-11   8.7180236463983633e-11   8.7462227202605290e-11   8.6636751601370325e-11   8.6993091910017745e-11   8.5994805114987960e-11   8.6425282007952989e-11   8.5255943509798690e-11   8.5760165401363176e-11   8.4421946767867669e-11   8.4999344413499872e-11   8.3494824059952545e-11   8.4144651928946404e-11   8.2476808906191782e-11   8.3198146976523300e-11   8.1370353794731509e-11   8.2162109769281873e-11   8.0178124271377413e-11   8.1039036212705227e-11   7.8902992523921041e-11   7.9831631888036951e-11   7.7548030454229541e-11   7.8542805540707472e-11   7.6116502285028915e-11   7.7175662062892095e-11   7.4611856692830416e-11   7.5733495025282337e-11   7.3037718502015127e-11   7.4219778732589645e-11   7.1397879947702874e-11   7.2638159862847837e-11   6.9696291545487293e-11   7.0992448672209097e-11   6.7937052570651100e-11   6.9286609824298949e-11   6.6124401183123145e-11   6.7524752833753835e-11   6.4262704219920134e-11   6.5711122168166529e-11   6.2356446671693995e-11   6.3850087023292718e-11   6.0410220879510565e-11   6.1946130795760511e-11   5.8428715472007740e-11   6.0003840282733429e-11   5.6416704069345899e-11   5.8027894632014467e-11   5.4379033783244412e-11   5.6023054070307983e-11   5.2320613539676412e-11   5.3994148433562636e-11   5.0246402252908997e-11   5.1946065533717833e-11   4.8161396880735048e-11   4.9883739381008121e-11   4.6070620382883189e-11   4.7812138301026251e-11   4.3979109623505180e-11   4.5736252960905315e-11   4.1891903234961348e-11   4.3661084351353592e-11   3.9814029480651824e-11   4.1591631734565057e-11   3.7750494140312146e-11   3.9532880603544909e-11   3.5706268451295825e-11   3.7489790669635902e-11   3.3686277132891540e-11   3.5467283915569924e-11   3.1695386520621555e-11   3.3470232737614808e-11   2.9738392844373518e-11   3.1503448206554955e-11   2.7820010673291243e-11   2.9571668478780812e-11   2.5944861557897730e-11   2.7679547380956676e-11   2.4117462895996338e-11   2.5831643199096184e-11   2.2342217050330426e-11   2.4032407696180420e-11   2.0623400742125802e-11   2.2286175389138140e-11   1.8965154748363384e-11   2.0597153105038483e-11   1.7371473926608573e-11   1.8969409847682641e-11   1.5846197589358348e-11   1.7406866995155577e-11   1.4393000255444655e-11   1.5913288852010362e-11   1.3015382797154338e-11   1.4492273581528146e-11   1.1716664005521714e-11   1.3147244537553696e-11   1.0499972594612504e-11   1.1881442016464551e-11   9.3682396636617496e-12   1.0697915451220306e-11   8.3241916353457648e-12   9.5995160636808965e-12   7.3703436875818598e-12   8.5888899934002023e-12   6.5089936967986513e-12   7.6684719180653671e-12   5.7422167073519791e-12   6.8404791796084989e-12   5.0718599476221895e-12   6.1069064246508262e-12   4.4995384154625323e-12   5.4695207651702844e-12   4.0266310738512933e-12   4.9298574541672611e-12   3.6542777088074499e-12   4.4892160457220394e-12   3.3833760075704860e-12   4.1486571057429899e-12   3.2145742751206473e-12   3.9089948706995371e-12   3.1480346336200824e-12   3.7708840399484180e-12   4.0557204119070273e-12   4.6739332482991518e-12   4.1919577720015226e-12   4.7380538396665769e-12   4.4283937595733050e-12   4.9014404912480544e-12   4.7643931438917254e-12   5.1639254913887970e-12   5.1991507282890346e-12   5.5248874016959259e-12   5.7316169361894010e-12   5.9834581182964566e-12   6.3605079556686206e-12   6.5385338031514073e-12   7.0843083810349849e-12   7.1887776874457743e-12   7.9012744187457161e-12   7.9326234689435194e-12   8.8094379128523932e-12   8.7682792251529802e-12   9.8066110263354966e-12   9.6937318044977251e-12   1.0890391492637765e-11   1.0706751709522765e-11   1.2058168397565363e-11   1.1804898481380198e-11   1.3307128468544907e-11   1.2985526584021828e-11   1.4634262852947399e-11   1.4245791778587338e-11   1.6036374367254418e-11   1.5582657975635562e-11   1.7510085200259993e-11   1.6992904548272710e-11   1.9051845051181245e-11   1.8473134091006926e-11   2.0657939682781873e-11   2.0019780603877905e-11   2.2324499869902752e-11   2.1629118082470520e-11   2.4047510720467303e-11   2.3297269494492855e-11   2.5822821348108871e-11   2.5020216119329450e-11   2.7646154872167705e-11   2.6793807230018839e-11   2.9513118720748750e-11   2.8613770092238949e-11   3.1419215213228200e-11   3.0475720257611991e-11   3.3359852394618493e-11   3.2375172126726313e-11   3.5330355098965983e-11   3.4307549754712265e-11   3.7325976212005472e-11   3.6268197875582298e-11   3.9341908107193773e-11   3.8252393117177128e-11   4.1373294226954659e-11   4.0255355380134766e-11   4.3415240784102373e-11   4.2272259352980784e-11   4.5462828550312587e-11   4.4298246138505332e-11   4.7511124706486821e-11   4.6328434956608216e-11   4.9555194728609486e-11   4.8357934906054660e-11   5.1590114271614991e-11   5.0381856742875363e-11   5.3610981036659340e-11   5.2395324662754074e-11   5.5612926578605689e-11   5.4393488044909073e-11   5.7591128034762159e-11   5.6371533139349523e-11   5.9540819744772831e-11   5.8324694661485060e-11   6.1457304730825763e-11   6.0248267275069180e-11   6.3335966011972104e-11   6.2137616924622280e-11   6.5172277729316922e-11   6.3988192001715398e-11   6.6961816046353543e-11   6.5795534308257568e-11   6.8700269809473738e-11   6.7555289799310970e-11   7.0383450930769819e-11   6.9263219069178567e-11   7.2007304478978339e-11   7.0915207566743473e-11   7.3567918449467195e-11   7.2507275506801297e-11   7.5061533186712911e-11   7.4035587458942269e-11   7.6484550441322641e-11   7.5496461585235521e-11   7.7833542039659207e-11   7.6886378512090736e-11   7.9105258143873710e-11   7.8201989807048099e-11   8.0296635077875060e-11   7.9440126049094456e-11   8.1404802710409727e-11   8.0597804457869837e-11   8.2427091369026611e-11   8.1672236085016976e-11   8.3361038269759523e-11   8.2660832531526064e-11   8.4204393453600451e-11   8.3561212180708379e-11   8.4955125204220676e-11   8.4371205939909620e-11   8.5611424942523488e-11   8.5088862463372197e-11   8.6171711584894755e-11   8.5712452853114083e-11   8.6634635352376869e-11   8.6240474825435643e-11   8.6999081020253339e-11   8.6671656329398192e-11   8.7264170607749081e-11   8.7004958610008003e-11   8.7429265489972317e-11   8.7239578714421823e-11   8.7493967940100106e-11   8.7374951421025897e-11   8.7458122083023203e-11   8.7410750606113342e-11   8.7321814275079858e-11   8.7346890025087149e-11   8.7085372893579457e-11   8.7183523524473054e-11   8.6749367546848005e-11   8.6921044668185271e-11   8.6314607700707567e-11   8.6560085791281646e-11   8.5782140729901634e-11   8.6101516474726141e-11   8.5153249393764977e-11   8.5546441452532727e-11   8.4429448746688485e-11   8.4896197948943932e-11   8.3612482488440543e-11   8.4152352457122976e-11   8.2704318761740371e-11   8.3316696967126139e-11   8.1707145411707211e-11   8.2391244645110760e-11   8.0623364717689473e-11   8.1378224987245467e-11   7.9455587601464034e-11   8.0280078446721422e-11   7.8206627340382152e-11   7.9099450554749488e-11   7.6879492789244663e-11   7.7839185547329515e-11   7.5477381131450814e-11   7.6502319513338629e-11   7.4003670176634108e-11   7.5092073079961621e-11   7.2461910223011052e-11   7.3611843654297786e-11   7.0855815505761823e-11   7.2065197239149976e-11   6.9189255248009555e-11   7.0455859840989762e-11   6.7466244339230108e-11   6.8787708494610835e-11   6.5690933663053488e-11   6.7064761923064715e-11   6.3867600098773655e-11   6.5291170854876279e-11   6.2000636216500229e-11   6.3471208026804918e-11   6.0094539696075496e-11   6.1609257889270378e-11   5.8153902489924108e-11   5.9709806042673044e-11   5.6183399764153648e-11   5.7777428431885197e-11   5.4187778631775186e-11   5.5816780325990351e-11   5.2171846718888329e-11   5.3832585096573598e-11   5.0140460582341466e-11   5.1829622843986394e-11   4.8098514008587391e-11   4.9812718880492544e-11   4.6050926226047895e-11   4.7786732103506588e-11   4.4002630053567250e-11   4.5756543292898231e-11   4.1958560015209815e-11   4.3727043352018180e-11   3.9923640454787653e-11   4.1703121523111760e-11   3.7902773671931172e-11   3.9689653612186898e-11   3.5900828111344927e-11   3.7691490239035107e-11   3.3922626634895702e-11   3.5713445154831309e-11   3.1972934902846081e-11   3.3760283643466161e-11   3.0056449893425200e-11   3.1836711042243382e-11   2.8177788585521680e-11   2.9947361406582916e-11   2.6341476838638808e-11   2.8096786345196530e-11   2.4551938487265735e-11   2.6289444056388259e-11   2.2813484684685360e-11   2.4529688586297682e-11   2.1130303516455634e-11   2.2821759340686019e-11   1.9506449911136389e-11   2.1169770871520721e-11   1.7945835871258340e-11   1.9577702964469666e-11   1.6452221049045194e-11   1.8049391051378122e-11   1.5029203689060760e-11   1.6588516969951460e-11   1.3680211959569385e-11   1.5198600093872885e-11   1.2408495694235260e-11   1.3882988853529974e-11   1.1217118563537918e-11   1.2644852668364554e-11   1.0108950695579254e-11   1.1487174309853181e-11   9.0866617645156867e-12   1.0412742712923503e-11   8.1527145638693217e-12   9.4241462528532665e-12   7.3093590840205558e-12   8.5237665019537276e-12   6.5586271098670226e-12   7.7137724812553377e-12   5.9023273616581628e-12   6.9961154171704747e-12   5.3420412046419155e-12   6.3725240177309463e-12   4.8791189520442990e-12   5.8445002866119260e-12   4.5146766890961294e-12   5.4133159163151152e-12   4.2495925225261061e-12   5.0800095126364303e-12   4.0844951915935144e-12   4.8453794281224418e-12   4.0195173320578268e-12   4.7100858667388949e-12   5.0276543519169038e-12   5.7128449982100754e-12   5.1609228889880509e-12   5.7750935703692877e-12   5.3920515993289040e-12   5.9341283585162801e-12   5.7203942144651518e-12   6.1897961703274921e-12   6.1451694135152396e-12   6.5414917221571709e-12   6.6653536789953326e-12   6.9883677555753043e-12   7.2796931721017331e-12   7.5293479492983623e-12   7.9867074247915341e-12   8.1631293363229638e-12   8.7846929343032130e-12   8.8881853023386323e-12   9.6717271711239141e-12   9.7027692516655785e-12   1.0645673142953920e-11   1.0604918845744177e-11   1.1704184508120218e-11   1.1592460758313980e-11   1.2844711211401210e-11   1.2663015928361754e-11   1.4064505620357239e-11   1.3814005301022796e-11   1.53606291