<?xml version="1.0"?>
<VTKFile type="UnstructuredGrid"  version="0.1"  >
<UnstructuredGrid>
<Piece  NumberOfPoints="21266" NumberOfCells="39409">
<Points>
<DataArray  type="Float64"  NumberOfComponents="3"  format="ascii">7.1769 4.82493 0  7.15599 4.841 0  7.13689 4.8551 0  7.1158 4.86986 0  7.09545 4.8833 0  7.0735 4.89909 0  7.2004 4.80826 0  7.2192 4.79324 0  7.2427 4.77631 0  7.2615 4.76004 0  7.2803 4.7447 0  7.2991 4.72921 0  7.31718 4.7141 0  7.33791 4.7 0  7.35423 4.6812 0  7.4495 4.58896 0  7.4683 4.56902 0  7.48701 4.5496 0  7.5039 4.5308 0  7.52 4.51291 0  7.53648 4.4932 0  7.5529 4.47481 0  7.17401 4.79802 0  7.15325 4.81426 0  7.13467 4.82894 0  7.11397 4.84383 0  7.09237 4.85558 0  7.07198 4.87138 0  7.05309 4.9115 0  7.05196 4.88634 0  7.0312 4.92685 0  7.0077 4.94116 0  7.19575 4.78239 0  7.21754 4.76837 0  7.23886 4.75218 0  7.25562 4.73534 0  7.27434 4.71992 0  7.29305 4.70439 0  7.3743 4.66399 0  7.3931 4.64533 0  7.4119 4.62616 0  7.4307 4.6086 0  7.31147 4.68903 0  7.32976 4.67219 0  7.34743 4.65373 0  7.56907 4.4556 0  7.58329 4.4368 0  7.59837 4.418 0  7.61305 4.3992 0  7.42335 4.581 0  7.44078 4.56169 0  7.47657 4.5264 0  7.45879 4.54253 0  7.49593 4.50844 0  7.51006 4.48936 0  7.52531 4.46995 0  7.54154 4.45075 0  7.1155 4.82061 0  7.16987 4.77069 0  7.14788 4.78758 0  7.12908 4.8052 0  7.09123 4.82654 0  7.06881 4.84355 0  7.04978 4.8604 0  7.02821 4.8991 0  7.03421 4.87544 0  7.00476 4.91014 0  6.9842 4.95543 0  6.9607 4.96994 0  6.93934 4.982 0  6.9184 4.99413 0  6.8949 5.0077 0  6.98145 4.92568 0  6.87443 5.0196 0  6.8526 5.03151 0  6.8291 5.04427 0  6.80549 5.0572 0  6.7821 5.06881 0  6.7586 5.08225 0  6.7351 5.09287 0  6.7116 5.10521 0  6.6881 5.11648 0  7.19272 4.75504 0  7.21665 4.74609 0  7.23042 4.72455 0  7.24824 4.71067 0  7.26973 4.69518 0  7.28646 4.67889 0  7.36559 4.63485 0  7.38342 4.61517 0  7.40426 4.59902 0  7.30423 4.66219 0  7.32137 4.64451 0  7.33935 4.62565 0  7.6281 4.379 0  7.6422 4.35929 0  7.6563 4.34009 0  7.67443 4.3193 0  7.55814 4.43199 0  7.57462 4.4151 0  7.59006 4.39525 0  7.60188 4.37551 0  7.4009 4.57326 0  7.41396 4.55444 0  7.4307 4.5342 0  7.47493 4.50372 0  7.44923 4.51424 0  7.485 4.48594 0  7.49758 4.46571 0  7.51313 4.44582 0  7.53056 4.42631 0  7.16772 4.73996 0  7.10435 4.80157 0  7.14271 4.7603 0  7.12093 4.78085 0  7.08185 4.80093 0  7.06371 4.81511 0  7.04358 4.832 0  7.02383 4.85045 0  7.00539 4.87652 0  6.97813 4.89407 0  6.95911 4.94168 0  6.93971 4.95578 0  6.91804 4.97033 0  6.89554 4.98171 0  6.87489 4.99508 0  6.95463 4.91127 0  6.85249 5.00745 0  6.82973 5.01717 0  6.80615 5.02883 0  6.78262 5.04136 0  6.75883 5.05356 0  6.73538 5.06548 0  6.71171 5.07745 0  6.66736 5.1277 0  6.6889 5.09005 0  6.66857 5.10307 0  7.6892 4.29795 0  7.78096 4.1407 0  7.70249 4.277 0  7.7691 4.16195 0  7.75678 4.183 0  7.7174 4.25497 0  7.72912 4.23 0  7.74292 4.2065 0  7.7926 4.11952 0  7.19623 4.72095 0  7.22149 4.69784 0  7.24709 4.68864 0  7.26072 4.66745 0  7.27958 4.65508 0  7.35596 4.60523 0  7.37586 4.58123 0  7.29133 4.63183 0  7.31613 4.62148 0  7.32791 4.59966 0  7.61643 4.3556 0  7.63282 4.3371 0  7.64817 4.3144 0  7.6624 4.29423 0  7.5494 4.40779 0  7.56853 4.39535 0  7.57509 4.37324 0  7.58865 4.35111 0  7.38542 4.55004 0  7.40218 4.5263 0  7.41892 4.50587 0  7.45946 4.48569 0  7.43505 4.48835 0  7.46877 4.46262 0  7.48316 4.44059 0  7.50057 4.42157 0  7.52053 4.39994 0  7.156 4.70458 0  7.1408 4.73494 0  7.09057 4.77616 0  7.10931 4.74763 0  7.05941 4.78525 0  7.0402 4.80507 0  7.01422 4.81688 0  6.99401 4.83891 0  6.97269 4.86114 0  6.94968 4.87903 0  6.93339 4.92954 0  6.91887 4.94835 0  6.89523 4.95505 0  6.87181 4.96799 0  6.85528 4.98657 0  6.92596 4.8974 0  6.83142 4.99095 0  6.80584 4.99996 0  6.78413 5.01302 0  6.73529 5.0367 0  6.75899 5.02675 0  6.71146 5.04906 0  6.68777 5.06204 0  6.6458 5.13871 0  6.62098 5.1512 0  6.5988 5.16279 0  6.64597 5.11434 0  6.66562 5.07608 0  6.64892 5.09369 0  6.57429 5.1747 0  6.5518 5.18561 0  6.5283 5.19672 0  7.67678 4.27344 0  7.65342 4.27244 0  7.76791 4.12016 0  7.75605 4.13966 0  7.68816 4.2524 0  7.74189 4.16147 0  7.72738 4.18138 0  7.70047 4.22914 0  7.71326 4.20492 0  7.8038 4.0984 0  7.81472 4.0749 0  7.77971 4.09887 0  7.86109 3.9809 0  7.18253 4.67983 0  7.22404 4.66203 0  7.25454 4.63507 0  7.27021 4.60915 0  7.34119 4.57632 0  7.35416 4.54866 0  7.29325 4.59534 0  7.31287 4.5746 0  7.13581 4.66432 0  7.60481 4.33106 0  7.62389 4.31457 0  7.63238 4.28784 0  7.54401 4.37792 0  7.5587 4.35201 0  7.57738 4.3254 0  7.36708 4.51353 0  7.39328 4.49781 0  7.40977 4.47505 0  7.43809 4.4633 0  7.4493 4.43448 0  7.46959 4.41333 0  7.49389 4.39733 0  7.50474 4.36871 0  7.10704 4.69993 0  7.06136 4.74104 0  7.02006 4.77609 0  6.94628 4.8503 0  6.98557 4.80104 0  6.96211 4.8272 0  6.92021 4.85963 0  6.90174 4.92376 0  6.86584 4.93962 0  6.83822 4.96125 0  6.88978 4.87871 0  6.80696 4.9733 0  6.78034 4.98216 0  6.76196 5.00183 0  6.71202 5.019 0  6.73503 5.00634 0  6.68661 5.03366 0  6.66135 5.04676 0  6.62341 5.12492 0  6.60062 5.13791 0  6.57598 5.1491 0  6.62498 5.09806 0  6.63497 5.0685 0  6.55217 5.15776 0  6.52795 5.1681 0  6.5048 5.20905 0  6.4813 5.2194 0  6.45602 5.2311 0  6.50367 5.17943 0  8.175240000000001 2.9281 0  8.17483 2.9046 0  8.17423 2.8811 0  8.174060000000001 2.8576 0  8.17165 2.8341 0  7.66054 4.25141 0  7.6336 4.25542 0  7.75902 4.10052 0  7.7333 4.1392 0  7.74084 4.11642 0  7.6704 4.2277 0  7.71251 4.15331 0  7.69687 4.17903 0  7.68277 4.20345 0  7.85116 4.0044 0  7.83862 4.0279 0  7.82746 4.0514 0  7.78904 4.07645 0  7.80125 4.05338 0  7.76369 4.07955 0  7.88387 3.9104 0  7.86962 3.9574 0  7.8772 3.93447 0  7.83694 3.9834 0  7.84642 3.96163 0  7.9125 3.8399 0  7.9007 3.86401 0  7.89251 3.8869 0  7.9242 3.81828 0  7.93714 3.7929 0  7.94966 3.7694 0  7.96124 3.7459 0  7.9712 3.72394 0  7.9806 3.7023 0  7.99072 3.6801 0  8.001659999999999 3.6566 0  8.087149999999999 3.4216 0  8.133559999999999 3.2571 0  8.095409999999999 3.3981 0  8.16422 3.0926 0  8.17474 2.9516 0  8.174110000000001 2.9751 0  8.166729999999999 3.0691 0  8.172639999999999 2.9986 0  8.170400000000001 3.0456 0  8.171239999999999 3.0221 0  7.17467 4.63462 0  7.21672 4.6218 0  7.23833 4.59746 0  7.26321 4.58321 0  7.31987 4.54885 0  7.33555 4.522 0  7.28125 4.55496 0  7.078 4.64761 0  7.11655 4.61904 0  7.14452 4.58878 0  7.59744 4.29841 0  7.60567 4.26319 0  7.5245 4.34575 0  7.54874 4.32635 0  7.55631 4.29734 0  7.33584 4.49112 0  7.36847 4.46828 0  7.40618 4.43358 0  7.43005 4.39967 0  7.46198 4.37186 0  7.48449 4.33447 0  7.04196 4.68162 0  7.00114 4.7206 0  6.97852 4.76275 0  6.92582 4.82296 0  6.94354 4.78428 0  6.88373 4.8294 0  6.85821 4.90133 0  6.82739 4.92231 0  6.80779 4.94706 0  6.85047 4.85705 0  6.77763 4.95422 0  6.68923 5.00653 0  6.74478 4.97187 0  6.70805 4.98747 0  6.63119 5.02825 0  6.66197 5.01202 0  6.59914 5.10863 0  6.58045 5.12778 0  6.55443 5.13039 0  6.59803 5.07802 0  6.6056 5.04652 0  6.528 5.13892 0  6.50252 5.14969 0  6.43421 5.2405 0  6.48009 5.19136 0  6.45715 5.20361 0  6.43649 5.2163 0  6.47803 5.16133 0  6.4108 5.25202 0  8.17079 2.8106 0  8.167149999999999 2.7871 0  8.154590000000001 2.93955 0  8.154109999999999 2.91651 0  8.15418 2.89326 0  8.153309999999999 2.87014 0  8.151289999999999 2.84913 0  8.149430000000001 2.82814 0  7.6399 4.22787 0  7.60964 4.22977 0  7.73817 4.08677 0  7.71461 4.12536 0  7.71671 4.10318 0  7.69331 4.13276 0  7.6504 4.20218 0  7.68013 4.15337 0  7.6652 4.17775 0  7.82434 4.00569 0  7.81248 4.02823 0  7.77107 4.05359 0  7.78856 4.03239 0  7.73981 4.05725 0  7.86843 3.89261 0  7.86032 3.91613 0  7.85377 3.9396 0  7.81516 3.98384 0  7.82305 3.96326 0  7.83403 3.94522 0  7.8965 3.81729 0  7.88316 3.84225 0  7.87622 3.86812 0  7.85458 3.87668 0  7.90753 3.79329 0  7.87802 3.79373 0  7.9333 3.74821 0  7.91938 3.76881 0  7.94615 3.72557 0  7.92535 3.72614 0  7.95529 3.70353 0  7.9654 3.68124 0  8.01069 3.6331 0  8.01989 3.6096 0  7.97586 3.65705 0  7.98482 3.63413 0  8.05498 3.5156 0  8.029820000000001 3.5861 0  8.03876 3.5626 0  8.04772 3.5391 0  8.030720000000001 3.51946 0  8.080640000000001 3.4451 0  8.072329999999999 3.4686 0  8.06363 3.4921 0  8.0641 3.42609 0  8.07094 3.40327 0  8.16114 3.1161 0  8.156940000000001 3.1396 0  8.138909999999999 3.2336 0  8.15274 3.1631 0  8.144220000000001 3.2101 0  8.14855 3.1866 0  8.10263 3.3746 0  8.10993 3.3511 0  8.115780000000001 3.3276 0  8.122439999999999 3.3041 0  8.12876 3.2806 0  8.10966 3.26397 0  8.11359 3.24102 0  8.078049999999999 3.37987 0  8.14321 3.07889 0  8.141349999999999 3.10148 0  8.15352 2.96247 0  8.15235 2.9842 0  8.145149999999999 3.05572 0  8.15104 3.00933 0  8.14743 3.03243 0  7.19201 4.57985 0  7.23443 4.55731 0  7.2971 4.50674 0  7.25047 4.51791 0  7.02161 4.61732 0  7.06736 4.59854 0  7.09621 4.56242 0  7.14317 4.54799 0  7.56834 4.26623 0  7.58264 4.23842 0  7.51214 4.30231 0  7.53449 4.27134 0  7.31111 4.44476 0  7.35601 4.42209 0  7.37649 4.38318 0  7.40713 4.35132 0  7.43696 4.31869 0  7.46789 4.29547 0  6.95252 4.58363 0  6.9763 4.65998 0  6.93501 4.72433 0  6.90184 4.77571 0  6.85805 4.78593 0  6.8346 4.81522 0  6.81401 4.88663 0  6.78449 4.91855 0  6.81425 4.84579 0  6.73904 4.92209 0  6.67455 4.97849 0  6.70206 4.94517 0  6.59506 5.01185 0  6.62898 4.98162 0  6.56515 5.09576 0  6.52968 5.10747 0  6.56876 5.04596 0  6.50118 5.12005 0  6.47599 5.13011 0  6.41366 5.22638 0  6.41804 5.20392 0  6.45471 5.17425 0  6.43421 5.18919 0  6.45079 5.1429 0  6.3873 5.26213 0  6.3906 5.23532 0  6.3638 5.27155 0  6.3403 5.28103 0  6.3168 5.29122 0  6.2933 5.29956 0  6.2698 5.30896 0  8.119630000000001 2.5051 0  8.164619999999999 2.7636 0  8.1614 2.7401 0  8.15827 2.7166 0  8.156560000000001 2.6931 0  8.15221 2.6696 0  8.147919999999999 2.6461 0  8.145910000000001 2.6226 0  8.12731 2.5286 0  8.131930000000001 2.5521 0  8.14226 2.5991 0  8.137460000000001 2.5756 0  8.143140000000001 2.80375 0  8.14217 2.77806 0  8.136570000000001 2.94954 0  8.133369999999999 2.92906 0  8.13245 2.90452 0  
[...]
<CellData  Scalars="f_1085"> 
<DataArray  type="Float64"  Name="f_1085"  format="ascii">1.9186796249992557e-09   1.9578009553205062e-09   1.1619070207601919e-08   2.2350453780275330e-09   9.7201897953739176e-09   3.4304307444511574e-09   1.0376302132011776e-08   5.6128316338130230e-09   1.4148649638142161e-08   5.4071760447689627e-09   1.5848172098306809e-08   5.5402180502675800e-09   1.4333792125718702e-08   8.7088404228820905e-10   1.1971236690834054e-08   6.4575468441113979e-10   8.5596303603970919e-09   5.1709716971361152e-11   6.5306057545808939e-09   5.6232103657588206e-11   7.0204812888086621e-09   2.4673521014641891e-10   6.8462005258220450e-09   4.4084155726184127e-10   5.7406780396590593e-09   1.0186535914874112e-09   6.5589400605628749e-09   1.6181648237634922e-09   7.7391135185437205e-09   2.2840700413893137e-09   8.5943788284997328e-09   5.7829286229860654e-09   6.0542166866518133e-09   1.1101711440139286e-08   5.9890803136175111e-09   5.8025751286398095e-09   1.1982396539099014e-08   1.2330135909985675e-08   5.6204221084326354e-09   7.2504620691563264e-09   5.1097583910066523e-09   7.8488473337755866e-09   5.4135488266424831e-09   9.7537546672861040e-09   5.4326735385779070e-09   1.0174377898731348e-08   8.4926872396164025e-09   1.1609063668925212e-08   1.1565737626308842e-08   1.2636339656415568e-08   9.0540644811215367e-09   1.0924767159369506e-08   6.5034390346571791e-09   1.6185014876601240e-08   1.0126114430532930e-08   1.5817068776355066e-08   1.7858428528606830e-08   1.3004750366451097e-08   1.5257256411013388e-08   8.2930442354688142e-09   1.5921659945550832e-08   1.3957628611191983e-08   1.1941187341435064e-08   1.3945642686663393e-08   2.5470010100192032e-08   1.3043540853000334e-08   2.8939984796245210e-08   9.4733357967581098e-09   1.2082886483594550e-08   6.4315093703077936e-09   9.6126834709851277e-09   7.1347433954478894e-09   1.0516411524638101e-08   6.8351725127793714e-09   7.9752241711423888e-09   5.8983805734682479e-09   5.5088717480954799e-09   6.1820963826909368e-09   7.0114465510160631e-09   3.6266831417060303e-09   9.9135688262277500e-09   3.7088572912954141e-09   1.2533273532033304e-08   5.1260632302647562e-09   8.8167487339285795e-09   1.4579458274233145e-08   8.2927265265495536e-09   6.2368957269364746e-09   8.3268064637076907e-09   1.0646371331527419e-08   1.0519024159754827e-08   6.8318621126638410e-09   4.1484686385336999e-09   9.1420951297107152e-09   3.8189590186515244e-09   7.0493215862413129e-09   3.3876587072524655e-09   4.8992762297511754e-09   2.7266619462724627e-09   6.9484507339169406e-09   1.0884532881419609e-08   9.7662230306788579e-09   9.4892811005228725e-09   1.2042428407137231e-08   1.2295233337212470e-08   8.9153782784313985e-09   1.1353893228497338e-08   1.0389653615508890e-08   1.3655801557933134e-08   6.8658476893160570e-09   7.1268424171885196e-09   9.1803462825957689e-09   9.7133022015180280e-09   1.0654100288571048e-08   1.1425968351522202e-08   1.0249080937845898e-08   1.1100281874004583e-08   1.2105529603830324e-08   7.6638427478068716e-09   1.1863774891515852e-08   1.2845590121282870e-08   1.4432412810422109e-08   1.1654368254567035e-08   1.8401708665201474e-08   1.1441816632555535e-08   9.4979560532148277e-09   1.7090000238460086e-08   1.5444133263259139e-08   1.5827345784512467e-08   1.4639246297798542e-08   1.4849824463443066e-08   1.9834405121852655e-08   3.1371460821440579e-08   2.1713504275108144e-08   2.9135897497172269e-08   3.2041091755133242e-08   3.9566141084406834e-08   1.0859857824276793e-08   2.5725098308987619e-08   8.0371597244710952e-09   1.7663269276495060e-08   6.8792874604820837e-09   1.4931115031181847e-08   8.6302294162128166e-09   1.6312667686590754e-08   6.0616611957231118e-09   1.3499135028905126e-08   2.7205122910626954e-08   2.9453467662473920e-08   6.5265718291369940e-09   1.2580647901370814e-08   7.9859755611119862e-09   1.3680784199852333e-08   8.0662807755999779e-09   1.5508835516239331e-08   7.1200345934348748e-09   1.3695295751942378e-08   5.8096583937763236e-09   1.2348768983081621e-08   5.4561246673531692e-09   1.1498379596408529e-08   3.6695470032145226e-09   9.6199287455821647e-09   2.4693359905499922e-09   7.6319288394459477e-09   1.1497842403774981e-09   4.8240214502568314e-09   1.2651802724261786e-08   1.1965927271857292e-08   2.7715970217165244e-08   8.2803370790290477e-09   2.6270104347174436e-08   6.4757795196573124e-09   1.0452097721274412e-08   6.6386890591618294e-09   1.1051567168281792e-08   7.6049144543067896e-09   8.8492288770653725e-09   1.3872005141646509e-08   1.0256442382673622e-08   1.3245396688463072e-08   1.3035388789276916e-08   1.7408796731065357e-08   9.5966817017267752e-09   1.2061209629840777e-08   8.6619680641360425e-09   1.2956056003630838e-08   1.0538552154361523e-08   1.0555322925440317e-08   2.2324001000146162e-09   7.6691160819621038e-09   2.2932278780049922e-09   6.8163256782018098e-09   1.7894317138476687e-09   5.5371721899240887e-09   1.2982443804973774e-09   8.9098156456860662e-09   7.1601524956056972e-09   9.8815834771343175e-09   6.3912969308210891e-09   8.1726523254957544e-09   6.9520045539108775e-09   8.1750780111355472e-09   8.0021796577770988e-09   8.6263230036553221e-09   1.1294383293758297e-08   1.7570858846052771e-08   1.3064166343335591e-08   1.8037792196188678e-08   1.3298313929272241e-08   1.3373855026873083e-08   9.0293871044008080e-09   9.9466342633220545e-09   1.4147457471049118e-08   1.2274404462444537e-08   1.0084410988250755e-08   1.0401497418437947e-08   1.1706250320068015e-08   1.4702041696530679e-08   1.2882827151880005e-08   1.3788239301017364e-08   1.3438195164483737e-08   1.0868212858286887e-08   2.5801169565214301e-08   1.2808974638892867e-08   3.0720780417221527e-08   1.4886648131196420e-08   9.6261544495363124e-09   2.4680909831161699e-08   3.0820501055248152e-08   3.5070313547185659e-08   1.6045443046915661e-08   2.2227554493198210e-08   1.3424809058482144e-08   1.9994710924519523e-08   2.7866697174064132e-08   1.9227638067536758e-08   3.6036922128393243e-08   2.9650282518287729e-08   3.7174666437427289e-08   4.9463780161426118e-08   3.0873275705047785e-08   2.8657876467985350e-08   1.8366678962410724e-08   2.5003646560929136e-08   1.1538432139876347e-08   1.5321578071667177e-08   1.8202869228404339e-08   1.4376476659450495e-08   1.6567853146485497e-08   2.0264268950944965e-08   1.0366056919567831e-08   1.5182866163187437e-08   3.3544911836741022e-08   3.1844245049427541e-08   1.5187279865449355e-08   1.1365230707687301e-08   1.8361011456205876e-08   1.8403735917449415e-08   1.3857070863578593e-08   1.4772668438757130e-08   1.2412929985117180e-08   1.3287337033030584e-08   1.3149916921922765e-08   1.1814398552776501e-08   1.0482770453750590e-08   1.0349579793864390e-08   8.1125511026074358e-09   8.4382539192213687e-09   1.1220602659933136e-09   3.2820199302186756e-09   5.0296499457272377e-09   6.6188214063036669e-09   3.1909359792721671e-09   4.6463853588684568e-09   1.3035696113270297e-09   5.7163850093568156e-09   6.6029408507623700e-09   2.2999368017189980e-09   2.0760415121123762e-09   8.0593922640263773e-09   1.4308546153347605e-09   7.4090491157944731e-09   1.5713550535932069e-09   8.1248345165419465e-09   1.7527138662750923e-09   1.1119037143492790e-08   2.4855720058074382e-09   1.0913609550650033e-08   1.7416861618448380e-09   1.1841648009518215e-08   1.1658063554010414e-08   3.1872454137107378e-09   7.2900518146930763e-09   2.6815032370454276e-08   4.9334961968143030e-08   1.2420365503142165e-08   1.6860781181578073e-08   5.8379182117190060e-08   1.3170096932477304e-08   1.0002155546670055e-08   2.4924905630585568e-08   1.9589865029941654e-08   1.9224146637395440e-08   1.2087247674211704e-08   2.1663232776841472e-08   2.4093003068275339e-08   1.0846598222428038e-08   1.3927965737956082e-08   1.3501895759142073e-08   1.3924675473575867e-08   1.9825851499107987e-08   4.9406125260675411e-08   6.9560885786504515e-09   8.5095924479380701e-09   7.6844481868955633e-09   9.6387404365404863e-09   8.0472858066951297e-09   8.2799012665538853e-09   1.0368633999565834e-08   9.6951244070504608e-09   1.0542997457554763e-08   1.7775155317629545e-08   1.1446923071979479e-08   1.5242420026298408e-08   1.1112179781317403e-08   9.2400067254825453e-09   2.0020295105975880e-08   2.7339060565937669e-08   1.6923033836909040e-08   2.8613184880234596e-08   1.4059642546249213e-08   1.9002303147347090e-08   1.3291593739470490e-08   1.4141395316333187e-08   2.0525659501326183e-08   1.6727176357716504e-08   2.6103944780206169e-08   1.5483753143020189e-08   2.3797578287010269e-08   1.5714891899736016e-08   1.9986835324413515e-08   1.9823755404537821e-08   2.6063545722356968e-08   4.8038436389078612e-08   8.0783995945632703e-08   5.4570282251324187e-08   6.4882763642541565e-08   1.6964475299784540e-07   4.2733400103709356e-08   4.2525159067471620e-08   2.7679301696052947e-08   1.3798384371697100e-07   2.0683140442343821e-08   4.4237372055817295e-08   5.6561138935335983e-08   4.1738155070098110e-08   5.1558768954229305e-08   2.7833024866492093e-08   4.1222930666822190e-08   2.8157828316769429e-08   2.6811427366318894e-08   2.0358027575455035e-08   4.9726954477028751e-08   3.6806611146485201e-08   6.5782595520208263e-08   2.6767985726565450e-08   1.7920575661880841e-08   3.8551699546054493e-08   7.4461669477015749e-08   6.2714060232459200e-08   2.3494798271263398e-08   3.0982160828671427e-08   1.8366161561032953e-08   2.0423562016863361e-08   1.1655335381137314e-08   1.5926187632601550e-08   1.1302865449754124e-08   1.5737948554448499e-08   1.2216060586487294e-08   1.2211644728607457e-08   9.3740986973527757e-09   9.1677120963150235e-09   7.8032216760254388e-09   8.0704045009378644e-09   9.5305423555407771e-10   3.5773429060505636e-09   7.6854913794673505e-10   3.5622309091201728e-09   1.1155494988278884e-09   2.2368740009915923e-09   4.2875827077770945e-09   2.6836910969467211e-09   5.5898262005680480e-09   5.1988578712569065e-09   1.0027850645681047e-08   1.2100793092112099e-09   3.1706544183078303e-09   1.6332944024996869e-09   3.8021787939463554e-09   2.1404091835710335e-09   4.3153256936341823e-09   8.1387796138261322e-09   5.5086813711875234e-09   7.4726907458496825e-09   1.0550967152944606e-08   5.7731183077458205e-09   6.6041329475451423e-09   8.5863532088231055e-09   7.7743482205815482e-09   6.2845051700381277e-09   1.1199794357850658e-08   9.8141326250082113e-09   1.0883983370284337e-08   7.0004423759010427e-09   1.1336136642091688e-08   1.3081247937550423e-08   1.1096233799733978e-08   1.1841734258362500e-08   1.2037842931184894e-08   5.3361438501604459e-09   9.8794064114966599e-09   5.6427371551533619e-09   1.2452779327953288e-08   9.7015895901803649e-09   6.1355408616001596e-09   7.9056489895575069e-09   7.8485666438321489e-09   1.1044638904111383e-08   6.8518769084182570e-08   7.8327737090393884e-08   3.4434781020365236e-08   7.0142823891465451e-08   1.7575727611871971e-08   3.4291390994242990e-08   1.5522053287942635e-08   1.7290866101060000e-08   2.0191618721601579e-08   1.7552551132894894e-08   2.9579036604076222e-08   2.5149903791589488e-08   3.1420126823097285e-08   2.0079035122161231e-08   2.5066282288314767e-08   8.5090622013299962e-08   7.0725618609131579e-08   6.0367505121407065e-08   5.9441849010298695e-08   1.5694023660070709e-08   1.0644931420369852e-08   1.6764387355570701e-08   2.1585308884229496e-08   1.4022662575144527e-08   1.8455259231452962e-08   2.8857936586640890e-08   1.5396836043318231e-08   2.5747360965171893e-08   2.1269902801458521e-08   2.4044656001056615e-08   3.5557192667559160e-08   4.2829339286592941e-08   3.6897290936239422e-08   5.5080471591151701e-08   3.6702100718215289e-08   4.2918070590090615e-08   5.2462275801141405e-08   4.3004868094761829e-08   6.2493196752128979e-08   3.3750155255784496e-08   3.4732240869687115e-08   5.5058993238895807e-08   4.6070769011197920e-08   5.4169141258934156e-08   1.9605328822778180e-07   1.3184496589601705e-07   1.9535280423458889e-07   1.9579769758570073e-07   5.4631024269185630e-08   1.1426463426835806e-07   3.9068029623787258e-08   3.9910763763167282e-08   9.0001096444525727e-08   7.1665628225661305e-08   8.6254046335506026e-08   1.1146451358417556e-07   8.9858259111855819e-08   1.1681681778337972e-07   9.7643802793338927e-08   6.4942736499743638e-08   6.7587971519970428e-08   4.0073496449043536e-08   2.4568889345562676e-08   1.0941854939542406e-07   1.0265587150753256e-07   2.7346925168127930e-08   2.5020213201012522e-08   8.4631018359646471e-09   2.9252117758837353e-08   1.7528401161488355e-08   3.2244221879305837e-08   1.8748370363168952e-08   3.4697287547763626e-08   9.3053068928524910e-09   1.3575799843162709e-08   1.1672338050032119e-08   7.6052239037782727e-09   1.2607336876745069e-08   3.4534962067690122e-09   4.8749444775113690e-09   2.6054738587605910e-09   4.4859041279640479e-09   3.3212842232150816e-09   2.8668646400896090e-09   6.2621826634336096e-09   8.3901124574919482e-09   9.8514322368422560e-09   1.0475114924822160e-08   3.7326317444982252e-09   3.5845457577980230e-09   3.9195389278446307e-09   3.5756554688601500e-09   2.6465141565059884e-09   4.4765001447220679e-09   3.0517540812343953e-09   4.6942433275711635e-09   2.8947503187184540e-09   3.8212325696780755e-09   4.1820526100769012e-09   3.8647117509942795e-09   9.3329613140595533e-09   9.2600132363856030e-09   8.9209050441285012e-09   8.5249299318710153e-09   8.6928627673458060e-09   8.6824643043796752e-09   8.1304928666216797e-09   9.0115954230060948e-09   8.1326381349910828e-09   1.1255706581750070e-08   8.5512903569494974e-09   1.0923753935715869e-08   1.0862521874386805e-08   1.4457629773870629e-08   1.6232260982420738e-08   9.1756729521738039e-09   9.2215690362202585e-09   8.2114505365839266e-09   9.0751306241542617e-09   7.8318322356806025e-09   1.4714398569582352e-08   7.2817960933144746e-09   1.1641617611250212e-08   1.3574785195665160e-08   1.2742071193308303e-08   1.0976133207605982e-08   1.0994201385790576e-08   9.5743612979227688e-09   1.4653352097519034e-08   7.4589279332793663e-09   1.3550286474288708e-08   8.1376739129847902e-09   1.5961506385893324e-08   1.4318463506563452e-08   1.4299664056332698e-08   1.4426818873362016e-08   1.2776650830846454e-08   1.8007156554622242e-08   1.7555564930784556e-08   1.6675014422245388e-08   8.7699188624628258e-09   9.5349880510915502e-09   1.1057291960772602e-08   8.2341435727277979e-09   1.1170817703856312e-08   9.7483880980611469e-09   1.0146600846428500e-08   9.5060233817102344e-09   8.3950449060375411e-09   7.2122181787911143e-09   8.1378944978076778e-09   1.0305590624579687e-08   1.2330347416982453e-08   1.5404674999300662e-08   9.4481752864322073e-09   1.5007804012741938e-08   1.1034880486614030e-08   1.0518325487445653e-08   1.1683159075190520e-08   1.6411962753681896e-08   1.8305151790166870e-08   7.3177521637845961e-09   1.0712099759307017e-08   1.1770710496616782e-08   1.5278477980622298e-08   5.3897925755902011e-09   8.2415535483075068e-09   5.7175980266179942e-09   4.3269191903332774e-09   5.8401529000392113e-09   3.5424358497742338e-09   5.1586469697497023e-09   3.3289698963717004e-09   4.7789836860587690e-09   2.6861686058276603e-09   3.8911005850624339e-09   1.0647363936727358e-10   9.5749825559263483e-10   1.3549461647910959e-09   1.3815178495412154e-09   6.3471370595393036e-09   7.8414243972669838e-09   7.4219858954122072e-09   2.1106032768424211e-09   2.1342341043509726e-09   1.1743562443062585e-08   1.0559056344730141e-08   1.0744703384499915e-08   9.8372501535989224e-09   9.0983504764402193e-09   1.0576224811037551e-08   9.6442716472365186e-09   1.4024070028436469e-08   1.2732789626926411e-08   1.0862894355224337e-08   1.0888392678654613e-08   1.3991886817906913e-08   1.1732684299536360e-08   1.4404743995176657e-08   3.4849817506431181e-08   7.8225818195447205e-08   6.2606932592088131e-08   3.2875431174105012e-08   2.4112471120462176e-08   6.3148466320085056e-08   3.4300497332113809e-08   5.7831552957618982e-08   3.9149132234190963e-08   7.0816787916406467e-08   6.3286219838405707e-08   1.3687701666542887e-07   6.0707976310257695e-08   5.5412335290051429e-08   5.9512196044161830e-08   4.3819332987150901e-08   5.4668018679939296e-08   5.1455622253568822e-08   2.3992658890605823e-08   2.1517717216653197e-08   2.7936011607428062e-08   1.6579766571363433e-08   3.1181472447903755e-08   2.6719583840665400e-08   3.8198443438984421e-08   3.3314827944474597e-08   4.4326573745776230e-08   1.1376862146711620e-07   1.1900702169347091e-07   1.1620949049064932e-07   1.3898719664881760e-07   9.0302240895839628e-08   1.2590537219727820e-07   1.0314825249112374e-07   1.0522589097938121e-07   7.5154222222098759e-08   1.0181463184511587e-07   6.5134972470921425e-08   7.1358087470831477e-08   2.6091506383438184e-07   1.2983925328146769e-07   2.0257619033656584e-07   1.8553827616143535e-07   1.8626791058755836e-07   2.9126994737830943e-07   1.7176937833803484e-07   1.2855767677507048e-07   1.7659021280321617e-07   1.5027997127109739e-07   9.4586749559954649e-08   1.2944726029504309e-07   9.9919151612348230e-08   9.3611504556253636e-08   5.1979675941312941e-08   8.0272476202534576e-08   4.2823391821399541e-08   8.3311702512183727e-08   6.5494805649341412e-08   9.1286920519579727e-08   7.7665576840901447e-08   1.4688696867026304e-08   1.2036529627603655e-08   6.5229380584598235e-08   3.0833148902872419e-08   7.7477695366669319e-08   1.0984126408182884e-08   2.4835177778436041e-08   2.2690139232128256e-08   1.5430038831795402e-08   4.3292765310790623e-09   4.4702395621232293e-09   8.1382608884632544e-09   3.5674399688272844e-09   7.1186468046607812e-09   1.1711173625390814e-08   6.8026442601603270e-09   6.9516021052113922e-09   3.2954310175235619e-09   2.7329863098394426e-09   3.3711467101572159e-09   3.0266983070951899e-09   3.5173146814522313e-09   3.6707830382023094e-09   3.0798595638061085e-09   4.0378869608419571e-09   4.0703762949162044e-09   3.3913641216325281e-09   3.8836407360892100e-09   3.1030482932055759e-09   3.9180847082186627e-09   3.5890819192590034e-09   4.1829881670047651e-09   5.0253646319230885e-09   1.2660908584398263e-08   1.2537578468052927e-08   9.8638205157832584e-09   1.2786004294177655e-08   8.9742089836024516e-09   9.8749531796787125e-09   7.7263169383464398e-09   9.5516906221337740e-09   1.0838674987032158e-08   7.6194311819213907e-09   9.3791998517297761e-09   9.1110194862920581e-09   8.0912349746486066e-09   7.4631859258184825e-09   9.4153688805160109e-09   5.1650813229008258e-09   5.7883685744393121e-09   1.5072852737448084e-08   1.7676366145291634e-08   1.9193327076506858e-08   2.0455553943671063e-08   2.7786232294844912e-08   2.1201519966591306e-08   7.7917326167644119e-09   1.5247816163116893e-08   8.7300708242923380e-09   1.0157663031104073e-08   1.5622981801554866e-08   1.3169158858299229e-08   1.9186543298005853e-08   8.5828650081106645e-09   1.4347658708509393e-08   1.8652875708170113e-08   2.2767888051607884e-08   1.5269687370196656e-08   1.6762195727783381e-08   3.9162557137466961e-08   3.1512141115791918e-08   2.9150481424661289e-08   6.4666775001456100e-08   4.8944901153150999e-08   1.2323522684569492e-08   1.0300866555903446e-08   1.0610943914994176e-08   1.3602035282045724e-08   8.5024824544110016e-09   1.2971615483191157e-08   2.1829794345683736e-08   1.1158686034845571e-08   1.4307380967596994e-08   2.7299188400964250e-08   2.2198937426952386e-08   1.8441652379673465e-08   1.9328504989937115e-08   2.5973002711693849e-08   1.8738812346754973e-08   1.5809833874555851e-08   1.6451419322185652e-08   1.6471494326594776e-08   1.5560893950132840e-08   1.7878294247503104e-08   1.4496868760453188e-08   1.3327060812064569e-08   1.6236159953620160e-08   8.0353791358765558e-09   1.4434746454773956e-08   5.5733246418850660e-09   4.4164330902517869e-09   7.0567231219782354e-09   9.4998141842186605e-09   6.2795639489819266e-09   6.0707255409485534e-09   4.6251697828925802e-09   4.9245502083256539e-09   1.0649860072922407e-09   1.9184223693