<?xml version="1.0"?>
<VTKFile type="UnstructuredGrid"  version="0.1"  >
<UnstructuredGrid>
<Piece  NumberOfPoints="21266" NumberOfCells="39409">
<Points>
<DataArray  type="Float64"  NumberOfComponents="3"  format="ascii">7.1769 4.82493 0  7.15599 4.841 0  7.13689 4.8551 0  7.1158 4.86986 0  7.09545 4.8833 0  7.0735 4.89909 0  7.2004 4.80826 0  7.2192 4.79324 0  7.2427 4.77631 0  7.2615 4.76004 0  7.2803 4.7447 0  7.2991 4.72921 0  7.31718 4.7141 0  7.33791 4.7 0  7.35423 4.6812 0  7.4495 4.58896 0  7.4683 4.56902 0  7.48701 4.5496 0  7.5039 4.5308 0  7.52 4.51291 0  7.53648 4.4932 0  7.5529 4.47481 0  7.17401 4.79802 0  7.15325 4.81426 0  7.13467 4.82894 0  7.11397 4.84383 0  7.09237 4.85558 0  7.07198 4.87138 0  7.05309 4.9115 0  7.05196 4.88634 0  7.0312 4.92685 0  7.0077 4.94116 0  7.19575 4.78239 0  7.21754 4.76837 0  7.23886 4.75218 0  7.25562 4.73534 0  7.27434 4.71992 0  7.29305 4.70439 0  7.3743 4.66399 0  7.3931 4.64533 0  7.4119 4.62616 0  7.4307 4.6086 0  7.31147 4.68903 0  7.32976 4.67219 0  7.34743 4.65373 0  7.56907 4.4556 0  7.58329 4.4368 0  7.59837 4.418 0  7.61305 4.3992 0  7.42335 4.581 0  7.44078 4.56169 0  7.47657 4.5264 0  7.45879 4.54253 0  7.49593 4.50844 0  7.51006 4.48936 0  7.52531 4.46995 0  7.54154 4.45075 0  7.1155 4.82061 0  7.16987 4.77069 0  7.14788 4.78758 0  7.12908 4.8052 0  7.09123 4.82654 0  7.06881 4.84355 0  7.04978 4.8604 0  7.02821 4.8991 0  7.03421 4.87544 0  7.00476 4.91014 0  6.9842 4.95543 0  6.9607 4.96994 0  6.93934 4.982 0  6.9184 4.99413 0  6.8949 5.0077 0  6.98145 4.92568 0  6.87443 5.0196 0  6.8526 5.03151 0  6.8291 5.04427 0  6.80549 5.0572 0  6.7821 5.06881 0  6.7586 5.08225 0  6.7351 5.09287 0  6.7116 5.10521 0  6.6881 5.11648 0  7.19272 4.75504 0  7.21665 4.74609 0  7.23042 4.72455 0  7.24824 4.71067 0  7.26973 4.69518 0  7.28646 4.67889 0  7.36559 4.63485 0  7.38342 4.61517 0  7.40426 4.59902 0  7.30423 4.66219 0  7.32137 4.64451 0  7.33935 4.62565 0  7.6281 4.379 0  7.6422 4.35929 0  7.6563 4.34009 0  7.67443 4.3193 0  7.55814 4.43199 0  7.57462 4.4151 0  7.59006 4.39525 0  7.60188 4.37551 0  7.4009 4.57326 0  7.41396 4.55444 0  7.4307 4.5342 0  7.47493 4.50372 0  7.44923 4.51424 0  7.485 4.48594 0  7.49758 4.46571 0  7.51313 4.44582 0  7.53056 4.42631 0  7.16772 4.73996 0  7.10435 4.80157 0  7.14271 4.7603 0  7.12093 4.78085 0  7.08185 4.80093 0  7.06371 4.81511 0  7.04358 4.832 0  7.02383 4.85045 0  7.00539 4.87652 0  6.97813 4.89407 0  6.95911 4.94168 0  6.93971 4.95578 0  6.91804 4.97033 0  6.89554 4.98171 0  6.87489 4.99508 0  6.95463 4.91127 0  6.85249 5.00745 0  6.82973 5.01717 0  6.80615 5.02883 0  6.78262 5.04136 0  6.75883 5.05356 0  6.73538 5.06548 0  6.71171 5.07745 0  6.66736 5.1277 0  6.6889 5.09005 0  6.66857 5.10307 0  7.6892 4.29795 0  7.78096 4.1407 0  7.70249 4.277 0  7.7691 4.16195 0  7.75678 4.183 0  7.7174 4.25497 0  7.72912 4.23 0  7.74292 4.2065 0  7.7926 4.11952 0  7.19623 4.72095 0  7.22149 4.69784 0  7.24709 4.68864 0  7.26072 4.66745 0  7.27958 4.65508 0  7.35596 4.60523 0  7.37586 4.58123 0  7.29133 4.63183 0  7.31613 4.62148 0  7.32791 4.59966 0  7.61643 4.3556 0  7.63282 4.3371 0  7.64817 4.3144 0  7.6624 4.29423 0  7.5494 4.40779 0  7.56853 4.39535 0  7.57509 4.37324 0  7.58865 4.35111 0  7.38542 4.55004 0  7.40218 4.5263 0  7.41892 4.50587 0  7.45946 4.48569 0  7.43505 4.48835 0  7.46877 4.46262 0  7.48316 4.44059 0  7.50057 4.42157 0  7.52053 4.39994 0  7.156 4.70458 0  7.1408 4.73494 0  7.09057 4.77616 0  7.10931 4.74763 0  7.05941 4.78525 0  7.0402 4.80507 0  7.01422 4.81688 0  6.99401 4.83891 0  6.97269 4.86114 0  6.94968 4.87903 0  6.93339 4.92954 0  6.91887 4.94835 0  6.89523 4.95505 0  6.87181 4.96799 0  6.85528 4.98657 0  6.92596 4.8974 0  6.83142 4.99095 0  6.80584 4.99996 0  6.78413 5.01302 0  6.73529 5.0367 0  6.75899 5.02675 0  6.71146 5.04906 0  6.68777 5.06204 0  6.6458 5.13871 0  6.62098 5.1512 0  6.5988 5.16279 0  6.64597 5.11434 0  6.66562 5.07608 0  6.64892 5.09369 0  6.57429 5.1747 0  6.5518 5.18561 0  6.5283 5.19672 0  7.67678 4.27344 0  7.65342 4.27244 0  7.76791 4.12016 0  7.75605 4.13966 0  7.68816 4.2524 0  7.74189 4.16147 0  7.72738 4.18138 0  7.70047 4.22914 0  7.71326 4.20492 0  7.8038 4.0984 0  7.81472 4.0749 0  7.77971 4.09887 0  7.86109 3.9809 0  7.18253 4.67983 0  7.22404 4.66203 0  7.25454 4.63507 0  7.27021 4.60915 0  7.34119 4.57632 0  7.35416 4.54866 0  7.29325 4.59534 0  7.31287 4.5746 0  7.13581 4.66432 0  7.60481 4.33106 0  7.62389 4.31457 0  7.63238 4.28784 0  7.54401 4.37792 0  7.5587 4.35201 0  7.57738 4.3254 0  7.36708 4.51353 0  7.39328 4.49781 0  7.40977 4.47505 0  7.43809 4.4633 0  7.4493 4.43448 0  7.46959 4.41333 0  7.49389 4.39733 0  7.50474 4.36871 0  7.10704 4.69993 0  7.06136 4.74104 0  7.02006 4.77609 0  6.94628 4.8503 0  6.98557 4.80104 0  6.96211 4.8272 0  6.92021 4.85963 0  6.90174 4.92376 0  6.86584 4.93962 0  6.83822 4.96125 0  6.88978 4.87871 0  6.80696 4.9733 0  6.78034 4.98216 0  6.76196 5.00183 0  6.71202 5.019 0  6.73503 5.00634 0  6.68661 5.03366 0  6.66135 5.04676 0  6.62341 5.12492 0  6.60062 5.13791 0  6.57598 5.1491 0  6.62498 5.09806 0  6.63497 5.0685 0  6.55217 5.15776 0  6.52795 5.1681 0  6.5048 5.20905 0  6.4813 5.2194 0  6.45602 5.2311 0  6.50367 5.17943 0  8.175240000000001 2.9281 0  8.17483 2.9046 0  8.17423 2.8811 0  8.174060000000001 2.8576 0  8.17165 2.8341 0  7.66054 4.25141 0  7.6336 4.25542 0  7.75902 4.10052 0  7.7333 4.1392 0  7.74084 4.11642 0  7.6704 4.2277 0  7.71251 4.15331 0  7.69687 4.17903 0  7.68277 4.20345 0  7.85116 4.0044 0  7.83862 4.0279 0  7.82746 4.0514 0  7.78904 4.07645 0  7.80125 4.05338 0  7.76369 4.07955 0  7.88387 3.9104 0  7.86962 3.9574 0  7.8772 3.93447 0  7.83694 3.9834 0  7.84642 3.96163 0  7.9125 3.8399 0  7.9007 3.86401 0  7.89251 3.8869 0  7.9242 3.81828 0  7.93714 3.7929 0  7.94966 3.7694 0  7.96124 3.7459 0  7.9712 3.72394 0  7.9806 3.7023 0  7.99072 3.6801 0  8.001659999999999 3.6566 0  8.087149999999999 3.4216 0  8.133559999999999 3.2571 0  8.095409999999999 3.3981 0  8.16422 3.0926 0  8.17474 2.9516 0  8.174110000000001 2.9751 0  8.166729999999999 3.0691 0  8.172639999999999 2.9986 0  8.170400000000001 3.0456 0  8.171239999999999 3.0221 0  7.17467 4.63462 0  7.21672 4.6218 0  7.23833 4.59746 0  7.26321 4.58321 0  7.31987 4.54885 0  7.33555 4.522 0  7.28125 4.55496 0  7.078 4.64761 0  7.11655 4.61904 0  7.14452 4.58878 0  7.59744 4.29841 0  7.60567 4.26319 0  7.5245 4.34575 0  7.54874 4.32635 0  7.55631 4.29734 0  7.33584 4.49112 0  7.36847 4.46828 0  7.40618 4.43358 0  7.43005 4.39967 0  7.46198 4.37186 0  7.48449 4.33447 0  7.04196 4.68162 0  7.00114 4.7206 0  6.97852 4.76275 0  6.92582 4.82296 0  6.94354 4.78428 0  6.88373 4.8294 0  6.85821 4.90133 0  6.82739 4.92231 0  6.80779 4.94706 0  6.85047 4.85705 0  6.77763 4.95422 0  6.68923 5.00653 0  6.74478 4.97187 0  6.70805 4.98747 0  6.63119 5.02825 0  6.66197 5.01202 0  6.59914 5.10863 0  6.58045 5.12778 0  6.55443 5.13039 0  6.59803 5.07802 0  6.6056 5.04652 0  6.528 5.13892 0  6.50252 5.14969 0  6.43421 5.2405 0  6.48009 5.19136 0  6.45715 5.20361 0  6.43649 5.2163 0  6.47803 5.16133 0  6.4108 5.25202 0  8.17079 2.8106 0  8.167149999999999 2.7871 0  8.154590000000001 2.93955 0  8.154109999999999 2.91651 0  8.15418 2.89326 0  8.153309999999999 2.87014 0  8.151289999999999 2.84913 0  8.149430000000001 2.82814 0  7.6399 4.22787 0  7.60964 4.22977 0  7.73817 4.08677 0  7.71461 4.12536 0  7.71671 4.10318 0  7.69331 4.13276 0  7.6504 4.20218 0  7.68013 4.15337 0  7.6652 4.17775 0  7.82434 4.00569 0  7.81248 4.02823 0  7.77107 4.05359 0  7.78856 4.03239 0  7.73981 4.05725 0  7.86843 3.89261 0  7.86032 3.91613 0  7.85377 3.9396 0  7.81516 3.98384 0  7.82305 3.96326 0  7.83403 3.94522 0  7.8965 3.81729 0  7.88316 3.84225 0  7.87622 3.86812 0  7.85458 3.87668 0  7.90753 3.79329 0  7.87802 3.79373 0  7.9333 3.74821 0  7.91938 3.76881 0  7.94615 3.72557 0  7.92535 3.72614 0  7.95529 3.70353 0  7.9654 3.68124 0  8.01069 3.6331 0  8.01989 3.6096 0  7.97586 3.65705 0  7.98482 3.63413 0  8.05498 3.5156 0  8.029820000000001 3.5861 0  8.03876 3.5626 0  8.04772 3.5391 0  8.030720000000001 3.51946 0  8.080640000000001 3.4451 0  8.072329999999999 3.4686 0  8.06363 3.4921 0  8.0641 3.42609 0  8.07094 3.40327 0  8.16114 3.1161 0  8.156940000000001 3.1396 0  8.138909999999999 3.2336 0  8.15274 3.1631 0  8.144220000000001 3.2101 0  8.14855 3.1866 0  8.10263 3.3746 0  8.10993 3.3511 0  8.115780000000001 3.3276 0  8.122439999999999 3.3041 0  8.12876 3.2806 0  8.10966 3.26397 0  8.11359 3.24102 0  8.078049999999999 3.37987 0  8.14321 3.07889 0  8.141349999999999 3.10148 0  8.15352 2.96247 0  8.15235 2.9842 0  8.145149999999999 3.05572 0  8.15104 3.00933 0  8.14743 3.03243 0  7.19201 4.57985 0  7.23443 4.55731 0  7.2971 4.50674 0  7.25047 4.51791 0  7.02161 4.61732 0  7.06736 4.59854 0  7.09621 4.56242 0  7.14317 4.54799 0  7.56834 4.26623 0  7.58264 4.23842 0  7.51214 4.30231 0  7.53449 4.27134 0  7.31111 4.44476 0  7.35601 4.42209 0  7.37649 4.38318 0  7.40713 4.35132 0  7.43696 4.31869 0  7.46789 4.29547 0  6.95252 4.58363 0  6.9763 4.65998 0  6.93501 4.72433 0  6.90184 4.77571 0  6.85805 4.78593 0  6.8346 4.81522 0  6.81401 4.88663 0  6.78449 4.91855 0  6.81425 4.84579 0  6.73904 4.92209 0  6.67455 4.97849 0  6.70206 4.94517 0  6.59506 5.01185 0  6.62898 4.98162 0  6.56515 5.09576 0  6.52968 5.10747 0  6.56876 5.04596 0  6.50118 5.12005 0  6.47599 5.13011 0  6.41366 5.22638 0  6.41804 5.20392 0  6.45471 5.17425 0  6.43421 5.18919 0  6.45079 5.1429 0  6.3873 5.26213 0  6.3906 5.23532 0  6.3638 5.27155 0  6.3403 5.28103 0  6.3168 5.29122 0  6.2933 5.29956 0  6.2698 5.30896 0  8.119630000000001 2.5051 0  8.164619999999999 2.7636 0  8.1614 2.7401 0  8.15827 2.7166 0  8.156560000000001 2.6931 0  8.15221 2.6696 0  8.147919999999999 2.6461 0  8.145910000000001 2.6226 0  8.12731 2.5286 0  8.131930000000001 2.5521 0  8.14226 2.5991 0  8.137460000000001 2.5756 0  8.143140000000001 2.80375 0  8.14217 2.77806 0  8.136570000000001 2.94954 0  8.133369999999999 2.92906 0  8.13245 2.90452 0  
[...]
<CellData  Scalars="f_1067"> 
<DataArray  type="Float64"  Name="f_1067"  format="ascii">1.2592747964305193e+05   9.4865424919105018e+04   9.2728742938050360e+04   7.7087595934790224e+04   7.9825074679023048e+04   9.5499152669202274e+04   9.2179022918720919e+04   1.3308078000876441e+05   1.1561069876138201e+05   1.4776811311546172e+05   1.3680353241900893e+05   9.0716041351496548e+04   1.2589993833494672e+05   7.1255675124504356e+04   1.0804436172365233e+05   8.0013871891059258e+04   6.1902777490535329e+04   4.3667333327239779e+04   6.4683521537939974e+04   6.2722641061372778e+04   4.9266982468402392e+04   6.2726988417607245e+04   6.2743180598966086e+04   5.8457297797257947e+04   6.3095491546936260e+04   8.8979515850562675e+04   5.9758372460531609e+04   9.9201322441353550e+04   1.1518637646084784e+05   1.1618627337901499e+05   9.2358643688507960e+04   1.3132533611347392e+05   1.4806033427595801e+05   1.3146181258805672e+05   1.0892860346395362e+05   1.5642735654950124e+05   1.2535059045760459e+05   1.4024775504232696e+05   6.0615227826890128e+04   1.0456227011435931e+05   9.7698856450052510e+04   7.2935077397955538e+04   1.1247485931501658e+05   9.5117742296683136e+04   1.1574226224376328e+05   1.1866699235244692e+05   5.3282772160411310e+04   1.1543070282714802e+05   1.1705333537508205e+05   1.1709052592129281e+05   7.1269357076779779e+04   9.5640697357536235e+04   4.1443940130304160e+04   1.5236858219029786e+05   1.1412076820370294e+05   1.3647343003989934e+05   1.6148409003643075e+05   9.9072244295117751e+04   1.2401189337782697e+05   1.7824893283244967e+05   1.5395514162565515e+05   9.4027220769091582e+04   6.5733229250450982e+04   3.2113112742719898e+05   2.5847968517457851e+05   2.8360393040405348e+05   3.1504659732714650e+05   1.0045731969067163e+05   1.1019988997127900e+05   4.0073883396932499e+04   7.4232623536245155e+04   1.0364504718353949e+05   8.4738728778478442e+04   7.8079323590028216e+04   7.3572133330265104e+04   4.9165361149730830e+04   7.4837545477217616e+04   7.2584194765414490e+04   5.9764003104775140e+04   1.6150250595267769e+05   1.5254413930538498e+05   2.1072350707525085e+05   1.9426939100384791e+05   1.2055101751837011e+05   1.3255374364470175e+05   1.6388793275472289e+05   9.0407854079920682e+04   8.6403071140925007e+04   1.1188672120494883e+05   1.0858102304689711e+05   1.2327939612384158e+05   1.2050797652297455e+05   7.7130653825570320e+04   1.1115290128189763e+05   4.9399102738124478e+04   6.3503779317579887e+04   4.8176839145623548e+04   5.8236670404949909e+04   7.8712629933595425e+04   6.1543252829898149e+04   7.2815647591162109e+04   1.2688308462499629e+05   9.0951984208134571e+04   1.6492755597331602e+05   1.4874391400673741e+05   5.9968477357881333e+04   1.7390913814963758e+05   1.3221426681821301e+05   1.8293834711774188e+05   7.2459975733649160e+04   4.8587887063542978e+04   1.1949948896400252e+05   8.8605046513733003e+04   1.3491764820461592e+05   1.2309794195067266e+05   1.1929941698111256e+05   1.3653032700386428e+05   1.5095130379373397e+05   4.6436091127969608e+04   7.9988263600826816e+04   1.3089730868720890e+05   1.8773254491210461e+05   1.0035095267339023e+05   1.4392240431363808e+05   8.2666926678024320e+04   1.0405562544535100e+05   1.9860468168056529e+05   1.4192650877396131e+05   1.6106407501420542e+05   1.5715906425432718e+05   1.1928225555661706e+05   1.7897051814038341e+05   3.7663600334221526e+05   2.6945178482480958e+05   2.8729712156129000e+05   3.3571533873961563e+05   4.8052317863786413e+05   2.1664888075985195e+05   2.4883024500887434e+05   1.1800262084463396e+05   1.4537341905880172e+05   8.2437336675419981e+04   1.2092980474058451e+05   1.4135123229910625e+05   1.0831649261796288e+05   7.4311566447561330e+04   9.7250716453342655e+04   2.8652006098844542e+05   3.4081871315543249e+05   8.3434868238865703e+04   9.5321718480053445e+04   1.2648438590129754e+05   1.0370032874923537e+05   1.3843835200483940e+05   1.2873073290014577e+05   1.1175547627067586e+05   1.3183970170755201e+05   1.1516069113388694e+05   1.0895143045590581e+05   9.5108348874698044e+04   1.1041917400089929e+05   7.8832670135633060e+04   8.4188318216705055e+04   5.6020552948841047e+04   6.7432844224079279e+04   2.5020752872771052e+04   3.4999553522091854e+04   2.3339189074205881e+05   1.9534532857880607e+05   2.2485133981558212e+05   1.1386596058035731e+05   2.3992397025537881e+05   3.6002798443669511e+04   8.4541448239812933e+04   1.0813429131212519e+05   8.7517239395927114e+04   5.3096379775793037e+04   7.6208361835122501e+04   1.8073357023067205e+05   1.6297512932987389e+05   3.4247403093544662e+05   1.9778994831476125e+05   3.1039247727728181e+05   2.3739682943738732e+05   1.6673980253802051e+05   4.7016311136278295e+04   1.4783426546703689e+05   1.1722128168411530e+05   8.3737861679223177e+04   6.9198302538226562e+04   7.6129382194460253e+04   4.0842018379651578e+04   6.0217920585376116e+04   8.3175800908510020e+04   6.8397283979449945e+04   8.4628240767864467e+04   8.5227981597493854e+04   8.0951722454584742e+04   1.1575933096143143e+05   3.7974701660806255e+04   5.8459309158292133e+04   7.9983752891390992e+04   5.6351681044211000e+04   1.0490481605707359e+05   9.9098517674324452e+04   1.2146465504206161e+05   2.0665639786636966e+05   1.8771620972010097e+05   2.0232033007378591e+05   2.3300566470255973e+05   1.9247919842648291e+05   6.1665342401110742e+04   1.6794205209785345e+05   1.9793851683288626e+05   1.6505307235216408e+05   1.3768980956676250e+05   1.1188181727077811e+05   1.7985059541276100e+05   1.5787839289723415e+05   1.6898524074272474e+05   1.6859835155820500e+05   1.6606090897915963e+05   1.9255024794056773e+05   9.7117511394330859e+05   1.2053306513148326e+05   3.6584410779266089e+05   1.7217713142586200e+05   1.0786306778276688e+05   4.2553833123729494e+05   3.0950783348534210e+05   3.9638588485125097e+05   1.3358810177068942e+05   1.8753840505168747e+05   1.0982275758228697e+05   1.5993517533017823e+05   3.8989640919608867e+05   2.6634234295483440e+05   7.4389852356745466e+05   4.3120315107559046e+05   6.4360386645473470e+05   8.1817426691169047e+05   3.8006963911375182e+05   3.9964348970177269e+05   1.5670459673186729e+05   2.6670735789964692e+05   8.7522948473090000e+04   1.0157664728102447e+05   1.4446960530207871e+05   1.1492058950776162e+05   1.3493897053422662e+05   1.5319892470224138e+05   6.4304588709827171e+04   9.7873069545478997e+04   3.7257509741482581e+05   3.8800069037815992e+05   1.0823684333720327e+05   8.5749103287493301e+04   1.6520843515875240e+05   1.6183318149538001e+05   1.2125547957750998e+05   1.2701170733717016e+05   1.0804548597885102e+05   1.0080792929078110e+05   1.3217754372516333e+05   1.0411668221517226e+05   9.3054471542111962e+04   1.0262267515741245e+05   7.1942041204430177e+04   8.0471036380593840e+04   2.6989710361730140e+04   2.9316359836760508e+04   4.7727115884733379e+04   5.8584224904674644e+04   1.5424944183395279e+04   3.1619605242907623e+04   7.2428546616614505e+04   7.9670802179707927e+04   3.7162116204832200e+04   5.0948399512713739e+04   6.0666745357764332e+04   4.9058547430102430e+04   1.0670258148160779e+05   8.1869251067972174e+04   7.0952341357970276e+04   7.4640318234268925e+04   1.2332285079384847e+05   9.2652987043075598e+04   1.3185856566360680e+05   1.3712166897942455e+05   1.2168536000106252e+05   1.2269463903837194e+05   1.1314626213214095e+05   5.1797556943329699e+04   5.2528061661402186e+04   1.1511262062099921e+06   1.1772721117352811e+06   3.3460876861225819e+05   2.6072172625961824e+05   9.3208726861507411e+05   2.4166609688677531e+05   1.8273453904447393e+05   4.3968020452856889e+05   2.7407112800094724e+05   3.6025828353335441e+05   1.9505295656896511e+05   5.7850074964881327e+05   5.3417269702653703e+05   2.8156656387417234e+05   3.0301038521233929e+05   2.5529584562387218e+05   1.2211330293569373e+05   2.6405809275207488e+05   1.7670973477460023e+06   1.0605192842321639e+05   1.0167463114848472e+05   5.5641335703372271e+04   9.0006943101664147e+04   1.5671794610060094e+05   1.0542017024886873e+05   1.1366500984893156e+05   1.5489567653390259e+05   1.5927518645852999e+05   2.4829900930749316e+05   1.2720936474038190e+05   1.9210991896136536e+05   1.0760257132379345e+05   1.8701165878153904e+05   8.0695967825407046e+05   7.3264533177120134e+05   1.4784483608815802e+05   4.3382391626477987e+05   2.0244534764492948e+05   2.1399776117450080e+05   1.9215707607424865e+05   1.3142828306610006e+05   1.8956160281566062e+05   3.5408981466915383e+05   3.5149471919277706e+05   2.3191819040373288e+05   3.4491961597700824e+05   1.2210590855315908e+05   2.0793378469640733e+05   7.6480102673875121e+05   2.8766664755794569e+05   1.8245875500815406e+06   1.9024686767507207e+06   1.7870453126464628e+06   1.8659328361673646e+06   5.0524751682482539e+06   1.4939945442101201e+06   6.5350141862842708e+05   6.8881044214073918e+05   3.3106798038669797e+06   2.1437954239418678e+05   5.8506862646267074e+05   1.1347889230965460e+06   5.0802167874838575e+05   7.8110316195416532e+05   3.5291935629706009e+05   6.8421359999294463e+05   3.7597670802551426e+05   2.5604972891548221e+05   2.7784666955046082e+05   6.6412646984297654e+05   3.1757271904469625e+05   9.0245701843693457e+05   3.0257838947359525e+05   2.0759811888083143e+05   5.2020653433070757e+05   1.9917738117524381e+06   1.2024082990308134e+06   1.7449001951388991e+05   3.5119162462530850e+05   1.8373682386572484e+05   1.8800825675219460e+05   9.4905952694368825e+04   1.4062777078697085e+05   1.0735246205467251e+05   1.5036637745915080e+05   1.4254354562608121e+05   1.1698567413519755e+05   8.1172823920987124e+04   1.0824401672956628e+05   8.3393882227608963e+04   8.9370115380619623e+04   3.5020334595199318e+04   3.0447821562923724e+04   1.9798579684942040e+04   2.4655230960142584e+04   2.9921757361262316e+04   2.8052357358422163e+04   3.0982553851877881e+04   2.4856908739774230e+04   7.5736184578637578e+04   4.7957232640911054e+04   1.2096664626171783e+05   3.6905790612992641e+04   3.1242467658592479e+04   5.0942790749658183e+04   4.6040433177217608e+04   6.2004885087266768e+04   5.4038985252985018e+04   7.1016073477066966e+04   5.3633349455804739e+04   5.0426261828569775e+04   1.2361374339348517e+05   3.2066642899466402e+04   4.5025340774366159e+04   8.4960673370711884e+04   5.9336538705483690e+04   6.7856287125025337e+04   1.2509725451682533e+05   1.0910921647239533e+05   1.7065357274040050e+05   1.0428555379907119e+05   1.4093109498764123e+05   1.7124701710095615e+05   1.4454482271902988e+05   1.3488185510375738e+05   1.3865284779276475e+05   8.8260417546612996e+04   7.3463354183312666e+04   9.6851620444570945e+04   8.2973018635411398e+04   6.2308314785682815e+04   4.1476766186123838e+04   8.9084003130475554e+04   7.7127920735763691e+04   6.8503365041248864e+04   3.5617140252455515e+06   1.8878683089371081e+06   7.5963874364531471e+05   3.0398971736332835e+06   5.6546240164508729e+05   7.2491580518041854e+05   1.4980477681040391e+05   1.7913511660774198e+05   3.4421180100536236e+05   2.1726592723940223e+05   3.4047313397796341e+05   4.8420202251757559e+05   4.2247540449372330e+05   7.4319899898124265e+05   6.5476691916228703e+05   5.4076713036888018e+06   3.9370773106184504e+06   3.6786302827078081e+06   3.7588198274257733e+06   2.3294768635169006e+05   2.2974696169609163e+05   2.3214627979762803e+05   4.0671847984332650e+05   2.8165465757363016e+05   4.9486452442601538e+05   7.6104355013239582e+05   1.6467637864906495e+05   2.9464391942624137e+05   6.6423140050819283e+05   2.4952610280322644e+05   4.5267459617866139e+05   9.1329115832980326e+05   1.2268117667260373e+06   1.6627400790043706e+06   1.2001564413070590e+06   1.1441923284175603e+06   2.6971273597760382e+06   9.7568486324908468e+05   1.6162281305033225e+06   9.7121935147926852e+05   9.9725253782957245e+05   1.5313365649745245e+06   8.8717138895703806e+05   1.6079759901151028e+06   1.3240722015697258e+07   8.5578824390854407e+06   1.0005466421831379e+07   1.0383547104686657e+07   1.5219422969181864e+06   4.7664580045268200e+06   4.6351314130469074e+05   5.4243565254599333e+05   1.7945693639856009e+06   1.6406966825324285e+06   1.9693022238420609e+06   2.6860729123392408e+06   2.2415036434789579e+06   3.0190909896277389e+06   2.5874387529761600e+06   1.2665553817885672e+06   1.3684501610164170e+06   6.9767655509736610e+05   3.3055887957337941e+05   2.0015611630241941e+06   3.1537646758867279e+06   2.7863328885504161e+05   3.0984560102592420e+05   7.1139905867513400e+04   3.4307336299697391e+05   3.1474327844413498e+05   4.8922732596930454e+05   1.6417295409857383e+05   5.5137312365826615e+05   9.6890281413229197e+04   2.5345279828669078e+05   1.4076938216319733e+05   1.0690727167598825e+05   1.8102399828230296e+05   4.8408044648918469e+04   4.3650343900509870e+04   1.3719105481406259e+04   3.1890994022982773e+04   3.1392227565272857e+04   2.5161906207429176e+04   7.7947585831025252e+04   1.1990865925466565e+05   2.0640830505846260e+05   1.3710105561437222e+05   4.6368506644242123e+04   4.0167919502754696e+04   5.5216988374123313e+04   4.8844270551945832e+04   5.9447126575958289e+04   6.2295820785430777e+04   6.1541581967273050e+04   5.1915987050967073e+04   2.7787346450436497e+04   4.0892808456132858e+04   5.9497985631076481e+04   5.2907118116348349e+04   5.3134751856905074e+04   5.7489638105536353e+04   5.8780395294097099e+04   5.0283540128325672e+04   5.5352836207709959e+04   5.2964670929422435e+04   5.0937064584730477e+04   6.2579356651287781e+04   5.0883895614031790e+04   6.8279491459103898e+04   4.9115552870369269e+04   1.2653704355586792e+05   1.1743429964529804e+05   2.0293874540326180e+05   2.2911541548740055e+05   5.3689778565487162e+04   8.9222771554081090e+04   4.5882665770427149e+04   5.2870105719866457e+04   6.2540533728757873e+04   1.1348080345464069e+05   6.5694641313045184e+04   1.6382367643581537e+05   1.5018223354021294e+05   1.5538772049978049e+05   1.0800457906025545e+05   1.4390971114368268e+05   1.3727483153908668e+05   1.5428172080120229e+05   1.1979067940550408e+05   1.0752989574058217e+05   1.2086429274022263e+05   1.0331116180396947e+05   1.2374793376237738e+05   1.5707101897764113e+05   1.1800532619964248e+05   9.1186976810863765e+04   1.3425731327790610e+05   2.1564592107815953e+05   1.8746392014785670e+05   7.9298405549559902e+04   8.3035114390372604e+04   7.5350010571983046e+04   6.9385650011507678e+04   7.8257219454374266e+04   6.1571209801504367e+04   6.8093431791562223e+04   6.4264387258141964e+04   5.2054441625153253e+04   3.9419255542377454e+04   3.9528905969819512e+04   1.1133762925975017e+05   1.6998289184659548e+05   1.7613510747546880e+05   7.7791802745227586e+04   1.2606023691021522e+05   9.0358494309845642e+04   6.8743570791357575e+04   1.8262591911793483e+05   1.5240714366013979e+05   1.5508424491107019e+05   9.2199138391264481e+04   1.5219494477760696e+05   1.1231044001514703e+05   1.5856146091979477e+05   4.6876379991878399e+04   8.0061673485613836e+04   4.3229583250820986e+04   4.1623263236254010e+04   4.5617567453396448e+04   3.6579256150602523e+04   4.0553823493743788e+04   3.8393478110944852e+04   4.3595271171442313e+04   3.0405735904105542e+04   3.3628739590479192e+04   2.1047747273809864e+03   8.4398443190354192e+03   1.4318317500986723e+04   8.7064786737723971e+03   4.7875762932429010e+04   6.5912783994231781e+04   5.0588675621864881e+04   1.9602626516239110e+04   1.5756135458232675e+04   7.8707242863247331e+04   6.6603239078620463e+04   7.0341719715679865e+04   6.0035632222079694e+04   5.6258705891496807e+04   6.6760845265071795e+04   5.7923461780978432e+04   1.0296393734456216e+05   8.2605544012151659e+04   6.1483584281867414e+04   7.9508943672685476e+04   9.4654513346118649e+04   8.2830533883710552e+04   1.1164214986336631e+05   1.7449045086159150e+06   2.0550555773025544e+06   2.5561928839373263e+06   9.7667936892291543e+05   4.8146666942588141e+05   1.5424187494913009e+06   1.5081611192311798e+06   7.5824269796125684e+05   2.1773381199117941e+06   2.7096396182307969e+06   1.6912442946959629e+06   6.1834200032364726e+06   1.6506963794306580e+06   3.1013200353427464e+06   2.6077671594580105e+06   2.3819387763390089e+06   2.0416195633158195e+06   1.1561802466136755e+06   7.8673871609276684e+05   8.8945562026406080e+05   3.3999794040879945e+05   1.8886509596992508e+05   1.3194161769429352e+06   9.3661858478076826e+05   1.5633798811504804e+06   2.9579267421930481e+05   1.0230699815129607e+06   6.7058015175799616e+06   7.1766306281626662e+06   4.0273890376928006e+06   6.8944243002805049e+06   6.0339600329570696e+06   5.3712540724076452e+06   5.8205623549606958e+06   4.9905862541990736e+06   5.2019849435402732e+06   6.4775422153697293e+06   1.4159088332318463e+06   1.9492689932193095e+06   1.0413580682855340e+07   9.0752157289013527e+06   9.7139634611122292e+06   5.8668995884506814e+06   8.9265480939460937e+06   2.2819683668130226e+07   3.1986167417258387e+06   8.0524024527731640e+06   6.3013237787621543e+06   6.0430694603202222e+06   2.8527571010687845e+06   2.4465128558159545e+06   2.9907403773912317e+06   1.5957130463508989e+06   8.9693858395915641e+05   1.6854144337744815e+06   5.3763905577884405e+05   2.1613699850127469e+06   1.1724952508347358e+06   2.1778448017428285e+06   2.2082858480115831e+06   1.5169301994127620e+05   1.6114953134970021e+05   1.6130799452029439e+06   7.4873666511593538e+05   2.3856439159503859e+06   1.5278832270913944e+05   5.2066910775936709e+05   6.4223327425589401e+05   4.8609754723222600e+05   1.3104360993509744e+05   7.6146384382741744e+04   1.0912288046487038e+05   5.3647807815394510e+04   8.9291806092306273e+04   3.1937962584248488e+05   1.9760600480371402e+05   1.4699132783885879e+05   4.6277657883841915e+04   4.8199186221286538e+04   5.3669903066044484e+04   4.1585773225210578e+04   4.5828921469978224e+04   3.2452512490628404e+04   2.7519812123345506e+04   5.7388415699851968e+04   5.4424440812662433e+04   3.6334673636185660e+04   4.6350665422152342e+04   2.7198479436523561e+04   5.9293852816062215e+04   5.4545678296293467e+04   5.7497435977517998e+04   4.3558727810989032e+04   1.1258700557413524e+05   1.1857519205942070e+05   7.1011705112318814e+04   1.0698943154276801e+05   3.9151125951443159e+04   6.2059473926652601e+04   4.5064966230259532e+04   6.8663326414159237e+04   7.6301947294300378e+04   3.7127515112741043e+04   4.9870652735402677e+04   6.1201945934280950e+04   4.7366853808346597e+04   4.6225200560306315e+04   5.6920246201531947e+04   4.5429238839981183e+04   2.9628504729878659e+04   2.4465197320401733e+05   2.1452852944870503e+05   3.2627209417102818e+05   3.1713930135153810e+05   4.6971570662432682e+05   3.2641249016467232e+05   7.8682318423630815e+04   1.9404637789620968e+05   7.8200456584946762e+04   1.6251806386991791e+05   1.1421938992660274e+05   3.4660078662645811e+05   2.9104086768822145e+05   7.2008601996154728e+04   1.5091741624965868e+05   2.4624593809880959e+05   2.6686643437556841e+05   1.9222283363282253e+05   2.4133928144363160e+05   6.9456617041188001e+05   3.8251809928921168e+05   5.7323890216716146e+05   1.3835876851081324e+06   7.4196761147836864e+05   9.2654887624341049e+04   6.8002059434263065e+04   9.0603352488432851e+04   1.1316341047899971e+05   5.2161775955856298e+04   1.1141076791337111e+05   2.7759516366926488e+05   1.0739762468362914e+05   7.9448131218377777e+04   2.9284602921665274e+05   2.1974700054083852e+05   2.2605887908130433e+05   2.6984247070737270e+05   3.2484055276161159e+05   1.5130157256664115e+05   2.1897710200821888e+05   9.3775506311697245e+04   1.6020827480218004e+05   1.6753069291790380e+05   1.7446242476771111e+05   1.4148935951148422e+05   1.2419751314136981e+05   1.4380770163247085e+05   9.8939613488322197e+04   2.2084528499774507e+05   3.9572607799566227e+04   2.7707912364978980e+04   4.2721780444722877e+04   9.4615129042963163e+04   4.9950000370500384e+04   4.7249953135569354e+04   3.0499729237701085e+04   3.8905039899702380e+04   1.3670302360856087e+04   2.2089804262