<?xml version="1.0"?>
<VTKFile type="UnstructuredGrid"  version="0.1"  >
<UnstructuredGrid>
<Piece  NumberOfPoints="21266" NumberOfCells="39409">
<Points>
<DataArray  type="Float64"  NumberOfComponents="3"  format="ascii">7.1769 4.82493 0  7.15599 4.841 0  7.13689 4.8551 0  7.1158 4.86986 0  7.09545 4.8833 0  7.0735 4.89909 0  7.2004 4.80826 0  7.2192 4.79324 0  7.2427 4.77631 0  7.2615 4.76004 0  7.2803 4.7447 0  7.2991 4.72921 0  7.31718 4.7141 0  7.33791 4.7 0  7.35423 4.6812 0  7.4495 4.58896 0  7.4683 4.56902 0  7.48701 4.5496 0  7.5039 4.5308 0  7.52 4.51291 0  7.53648 4.4932 0  7.5529 4.47481 0  7.17401 4.79802 0  7.15325 4.81426 0  7.13467 4.82894 0  7.11397 4.84383 0  7.09237 4.85558 0  7.07198 4.87138 0  7.05309 4.9115 0  7.05196 4.88634 0  7.0312 4.92685 0  7.0077 4.94116 0  7.19575 4.78239 0  7.21754 4.76837 0  7.23886 4.75218 0  7.25562 4.73534 0  7.27434 4.71992 0  7.29305 4.70439 0  7.3743 4.66399 0  7.3931 4.64533 0  7.4119 4.62616 0  7.4307 4.6086 0  7.31147 4.68903 0  7.32976 4.67219 0  7.34743 4.65373 0  7.56907 4.4556 0  7.58329 4.4368 0  7.59837 4.418 0  7.61305 4.3992 0  7.42335 4.581 0  7.44078 4.56169 0  7.47657 4.5264 0  7.45879 4.54253 0  7.49593 4.50844 0  7.51006 4.48936 0  7.52531 4.46995 0  7.54154 4.45075 0  7.1155 4.82061 0  7.16987 4.77069 0  7.14788 4.78758 0  7.12908 4.8052 0  7.09123 4.82654 0  7.06881 4.84355 0  7.04978 4.8604 0  7.02821 4.8991 0  7.03421 4.87544 0  7.00476 4.91014 0  6.9842 4.95543 0  6.9607 4.96994 0  6.93934 4.982 0  6.9184 4.99413 0  6.8949 5.0077 0  6.98145 4.92568 0  6.87443 5.0196 0  6.8526 5.03151 0  6.8291 5.04427 0  6.80549 5.0572 0  6.7821 5.06881 0  6.7586 5.08225 0  6.7351 5.09287 0  6.7116 5.10521 0  6.6881 5.11648 0  7.19272 4.75504 0  7.21665 4.74609 0  7.23042 4.72455 0  7.24824 4.71067 0  7.26973 4.69518 0  7.28646 4.67889 0  7.36559 4.63485 0  7.38342 4.61517 0  7.40426 4.59902 0  7.30423 4.66219 0  7.32137 4.64451 0  7.33935 4.62565 0  7.6281 4.379 0  7.6422 4.35929 0  7.6563 4.34009 0  7.67443 4.3193 0  7.55814 4.43199 0  7.57462 4.4151 0  7.59006 4.39525 0  7.60188 4.37551 0  7.4009 4.57326 0  7.41396 4.55444 0  7.4307 4.5342 0  7.47493 4.50372 0  7.44923 4.51424 0  7.485 4.48594 0  7.49758 4.46571 0  7.51313 4.44582 0  7.53056 4.42631 0  7.16772 4.73996 0  7.10435 4.80157 0  7.14271 4.7603 0  7.12093 4.78085 0  7.08185 4.80093 0  7.06371 4.81511 0  7.04358 4.832 0  7.02383 4.85045 0  7.00539 4.87652 0  6.97813 4.89407 0  6.95911 4.94168 0  6.93971 4.95578 0  6.91804 4.97033 0  6.89554 4.98171 0  6.87489 4.99508 0  6.95463 4.91127 0  6.85249 5.00745 0  6.82973 5.01717 0  6.80615 5.02883 0  6.78262 5.04136 0  6.75883 5.05356 0  6.73538 5.06548 0  6.71171 5.07745 0  6.66736 5.1277 0  6.6889 5.09005 0  6.66857 5.10307 0  7.6892 4.29795 0  7.78096 4.1407 0  7.70249 4.277 0  7.7691 4.16195 0  7.75678 4.183 0  7.7174 4.25497 0  7.72912 4.23 0  7.74292 4.2065 0  7.7926 4.11952 0  7.19623 4.72095 0  7.22149 4.69784 0  7.24709 4.68864 0  7.26072 4.66745 0  7.27958 4.65508 0  7.35596 4.60523 0  7.37586 4.58123 0  7.29133 4.63183 0  7.31613 4.62148 0  7.32791 4.59966 0  7.61643 4.3556 0  7.63282 4.3371 0  7.64817 4.3144 0  7.6624 4.29423 0  7.5494 4.40779 0  7.56853 4.39535 0  7.57509 4.37324 0  7.58865 4.35111 0  7.38542 4.55004 0  7.40218 4.5263 0  7.41892 4.50587 0  7.45946 4.48569 0  7.43505 4.48835 0  7.46877 4.46262 0  7.48316 4.44059 0  7.50057 4.42157 0  7.52053 4.39994 0  7.156 4.70458 0  7.1408 4.73494 0  7.09057 4.77616 0  7.10931 4.74763 0  7.05941 4.78525 0  7.0402 4.80507 0  7.01422 4.81688 0  6.99401 4.83891 0  6.97269 4.86114 0  6.94968 4.87903 0  6.93339 4.92954 0  6.91887 4.94835 0  6.89523 4.95505 0  6.87181 4.96799 0  6.85528 4.98657 0  6.92596 4.8974 0  6.83142 4.99095 0  6.80584 4.99996 0  6.78413 5.01302 0  6.73529 5.0367 0  6.75899 5.02675 0  6.71146 5.04906 0  6.68777 5.06204 0  6.6458 5.13871 0  6.62098 5.1512 0  6.5988 5.16279 0  6.64597 5.11434 0  6.66562 5.07608 0  6.64892 5.09369 0  6.57429 5.1747 0  6.5518 5.18561 0  6.5283 5.19672 0  7.67678 4.27344 0  7.65342 4.27244 0  7.76791 4.12016 0  7.75605 4.13966 0  7.68816 4.2524 0  7.74189 4.16147 0  7.72738 4.18138 0  7.70047 4.22914 0  7.71326 4.20492 0  7.8038 4.0984 0  7.81472 4.0749 0  7.77971 4.09887 0  7.86109 3.9809 0  7.18253 4.67983 0  7.22404 4.66203 0  7.25454 4.63507 0  7.27021 4.60915 0  7.34119 4.57632 0  7.35416 4.54866 0  7.29325 4.59534 0  7.31287 4.5746 0  7.13581 4.66432 0  7.60481 4.33106 0  7.62389 4.31457 0  7.63238 4.28784 0  7.54401 4.37792 0  7.5587 4.35201 0  7.57738 4.3254 0  7.36708 4.51353 0  7.39328 4.49781 0  7.40977 4.47505 0  7.43809 4.4633 0  7.4493 4.43448 0  7.46959 4.41333 0  7.49389 4.39733 0  7.50474 4.36871 0  7.10704 4.69993 0  7.06136 4.74104 0  7.02006 4.77609 0  6.94628 4.8503 0  6.98557 4.80104 0  6.96211 4.8272 0  6.92021 4.85963 0  6.90174 4.92376 0  6.86584 4.93962 0  6.83822 4.96125 0  6.88978 4.87871 0  6.80696 4.9733 0  6.78034 4.98216 0  6.76196 5.00183 0  6.71202 5.019 0  6.73503 5.00634 0  6.68661 5.03366 0  6.66135 5.04676 0  6.62341 5.12492 0  6.60062 5.13791 0  6.57598 5.1491 0  6.62498 5.09806 0  6.63497 5.0685 0  6.55217 5.15776 0  6.52795 5.1681 0  6.5048 5.20905 0  6.4813 5.2194 0  6.45602 5.2311 0  6.50367 5.17943 0  8.175240000000001 2.9281 0  8.17483 2.9046 0  8.17423 2.8811 0  8.174060000000001 2.8576 0  8.17165 2.8341 0  7.66054 4.25141 0  7.6336 4.25542 0  7.75902 4.10052 0  7.7333 4.1392 0  7.74084 4.11642 0  7.6704 4.2277 0  7.71251 4.15331 0  7.69687 4.17903 0  7.68277 4.20345 0  7.85116 4.0044 0  7.83862 4.0279 0  7.82746 4.0514 0  7.78904 4.07645 0  7.80125 4.05338 0  7.76369 4.07955 0  7.88387 3.9104 0  7.86962 3.9574 0  7.8772 3.93447 0  7.83694 3.9834 0  7.84642 3.96163 0  7.9125 3.8399 0  7.9007 3.86401 0  7.89251 3.8869 0  7.9242 3.81828 0  7.93714 3.7929 0  7.94966 3.7694 0  7.96124 3.7459 0  7.9712 3.72394 0  7.9806 3.7023 0  7.99072 3.6801 0  8.001659999999999 3.6566 0  8.087149999999999 3.4216 0  8.133559999999999 3.2571 0  8.095409999999999 3.3981 0  8.16422 3.0926 0  8.17474 2.9516 0  8.174110000000001 2.9751 0  8.166729999999999 3.0691 0  8.172639999999999 2.9986 0  8.170400000000001 3.0456 0  8.171239999999999 3.0221 0  7.17467 4.63462 0  7.21672 4.6218 0  7.23833 4.59746 0  7.26321 4.58321 0  7.31987 4.54885 0  7.33555 4.522 0  7.28125 4.55496 0  7.078 4.64761 0  7.11655 4.61904 0  7.14452 4.58878 0  7.59744 4.29841 0  7.60567 4.26319 0  7.5245 4.34575 0  7.54874 4.32635 0  7.55631 4.29734 0  7.33584 4.49112 0  7.36847 4.46828 0  7.40618 4.43358 0  7.43005 4.39967 0  7.46198 4.37186 0  7.48449 4.33447 0  7.04196 4.68162 0  7.00114 4.7206 0  6.97852 4.76275 0  6.92582 4.82296 0  6.94354 4.78428 0  6.88373 4.8294 0  6.85821 4.90133 0  6.82739 4.92231 0  6.80779 4.94706 0  6.85047 4.85705 0  6.77763 4.95422 0  6.68923 5.00653 0  6.74478 4.97187 0  6.70805 4.98747 0  6.63119 5.02825 0  6.66197 5.01202 0  6.59914 5.10863 0  6.58045 5.12778 0  6.55443 5.13039 0  6.59803 5.07802 0  6.6056 5.04652 0  6.528 5.13892 0  6.50252 5.14969 0  6.43421 5.2405 0  6.48009 5.19136 0  6.45715 5.20361 0  6.43649 5.2163 0  6.47803 5.16133 0  6.4108 5.25202 0  8.17079 2.8106 0  8.167149999999999 2.7871 0  8.154590000000001 2.93955 0  8.154109999999999 2.91651 0  8.15418 2.89326 0  8.153309999999999 2.87014 0  8.151289999999999 2.84913 0  8.149430000000001 2.82814 0  7.6399 4.22787 0  7.60964 4.22977 0  7.73817 4.08677 0  7.71461 4.12536 0  7.71671 4.10318 0  7.69331 4.13276 0  7.6504 4.20218 0  7.68013 4.15337 0  7.6652 4.17775 0  7.82434 4.00569 0  7.81248 4.02823 0  7.77107 4.05359 0  7.78856 4.03239 0  7.73981 4.05725 0  7.86843 3.89261 0  7.86032 3.91613 0  7.85377 3.9396 0  7.81516 3.98384 0  7.82305 3.96326 0  7.83403 3.94522 0  7.8965 3.81729 0  7.88316 3.84225 0  7.87622 3.86812 0  7.85458 3.87668 0  7.90753 3.79329 0  7.87802 3.79373 0  7.9333 3.74821 0  7.91938 3.76881 0  7.94615 3.72557 0  7.92535 3.72614 0  7.95529 3.70353 0  7.9654 3.68124 0  8.01069 3.6331 0  8.01989 3.6096 0  7.97586 3.65705 0  7.98482 3.63413 0  8.05498 3.5156 0  8.029820000000001 3.5861 0  8.03876 3.5626 0  8.04772 3.5391 0  8.030720000000001 3.51946 0  8.080640000000001 3.4451 0  8.072329999999999 3.4686 0  8.06363 3.4921 0  8.0641 3.42609 0  8.07094 3.40327 0  8.16114 3.1161 0  8.156940000000001 3.1396 0  8.138909999999999 3.2336 0  8.15274 3.1631 0  8.144220000000001 3.2101 0  8.14855 3.1866 0  8.10263 3.3746 0  8.10993 3.3511 0  8.115780000000001 3.3276 0  8.122439999999999 3.3041 0  8.12876 3.2806 0  8.10966 3.26397 0  8.11359 3.24102 0  8.078049999999999 3.37987 0  8.14321 3.07889 0  8.141349999999999 3.10148 0  8.15352 2.96247 0  8.15235 2.9842 0  8.145149999999999 3.05572 0  8.15104 3.00933 0  8.14743 3.03243 0  7.19201 4.57985 0  7.23443 4.55731 0  7.2971 4.50674 0  7.25047 4.51791 0  7.02161 4.61732 0  7.06736 4.59854 0  7.09621 4.56242 0  7.14317 4.54799 0  7.56834 4.26623 0  7.58264 4.23842 0  7.51214 4.30231 0  7.53449 4.27134 0  7.31111 4.44476 0  7.35601 4.42209 0  7.37649 4.38318 0  7.40713 4.35132 0  7.43696 4.31869 0  7.46789 4.29547 0  6.95252 4.58363 0  6.9763 4.65998 0  6.93501 4.72433 0  6.90184 4.77571 0  6.85805 4.78593 0  6.8346 4.81522 0  6.81401 4.88663 0  6.78449 4.91855 0  6.81425 4.84579 0  6.73904 4.92209 0  6.67455 4.97849 0  6.70206 4.94517 0  6.59506 5.01185 0  6.62898 4.98162 0  6.56515 5.09576 0  6.52968 5.10747 0  6.56876 5.04596 0  6.50118 5.12005 0  6.47599 5.13011 0  6.41366 5.22638 0  6.41804 5.20392 0  6.45471 5.17425 0  6.43421 5.18919 0  6.45079 5.1429 0  6.3873 5.26213 0  6.3906 5.23532 0  6.3638 5.27155 0  6.3403 5.28103 0  6.3168 5.29122 0  6.2933 5.29956 0  6.2698 5.30896 0  8.119630000000001 2.5051 0  8.164619999999999 2.7636 0  8.1614 2.7401 0  8.15827 2.7166 0  8.156560000000001 2.6931 0  8.15221 2.6696 0  8.147919999999999 2.6461 0  8.145910000000001 2.6226 0  8.12731 2.5286 0  8.131930000000001 2.5521 0  8.14226 2.5991 0  8.137460000000001 2.5756 0  8.143140000000001 2.80375 0  8.14217 2.77806 0  8.136570000000001 2.94954 0  8.133369999999999 2.92906 0  8.13245 2.90452 0  
[...]
<CellData  Scalars="f_1073"> 
<DataArray  type="Float64"  Name="f_1073"  format="ascii">1.9184668223564915e-14   1.0231635855731822e-14   1.4427396391128010e-14   5.9602403030007637e-15   9.0700016699274334e-15   4.3629218142537573e-15   6.7602945845526046e-15   3.6501502827063186e-15   5.8025460907609071e-15   2.3837826140422737e-15   4.8010682595400634e-15   1.4125653834170493e-15   3.4216884165574533e-15   1.7953649231370648e-14   2.2506034600325517e-14   3.1857946715127881e-14   2.1981364701575783e-14   2.5622473501091201e-14   3.0673158146040535e-14   3.8422601801777841e-14   3.1054349610047207e-14   4.7014499211025793e-14   4.3866490359640325e-14   5.2180940014383477e-14   5.2568196953164975e-14   8.1795538819598849e-14   5.8744876976806779e-14   9.7588909095063247e-14   9.8644130131905152e-14   1.2033676313799154e-13   1.0174545446517672e-13   1.6942497887750857e-13   1.8586376295570430e-13   1.7139172617889191e-13   1.5844418609038149e-13   1.9755149932700230e-13   1.7239169348193689e-13   1.8187532888648741e-13   1.0726394713401193e-13   1.5672705951755918e-13   1.4756240470689977e-13   1.2212778206403815e-13   1.6110083451802042e-13   1.4473433231673902e-13   1.6159057109966317e-13   1.6627976013585381e-13   5.2487993284364924e-15   2.3439483593991159e-14   1.6273842450856710e-14   2.0084512034215374e-14   8.2188316861541335e-15   1.2018768210416195e-14   4.9224535220909621e-15   7.0154127218963471e-15   6.3434853900536655e-15   4.7560759106565647e-15   6.3689785954507944e-15   2.9915539278919987e-15   3.9350346513242288e-15   1.7488814345892157e-15   3.1971385922202537e-15   2.6995378031614529e-15   2.4419223201537297e-15   2.7270640391168933e-15   4.7156774334616556e-15   2.5081237552259747e-15   5.3050678669859183e-15   2.9591862930094197e-14   2.7907370918014688e-14   2.6312295007849309e-14   2.8895333970345730e-14   4.7060210598738255e-14   3.9932206354803628e-14   4.9879582117377578e-14   4.2085896095376598e-14   4.6018065650438293e-14   5.7020758282934590e-14   6.5923639972716532e-14   5.4716566506619119e-14   1.6042875363464228e-13   1.5012699723406711e-13   2.0340519713986177e-13   1.9009029750645288e-13   1.5003810996360055e-13   1.6426325503956560e-13   1.8314986662118954e-13   8.6892852773853742e-14   7.8717608855957469e-14   1.1238673503567684e-13   1.0240725548384547e-13   1.3313273931067650e-13   1.2397171322596320e-13   1.2011168517607108e-13   1.5712809369923100e-13   8.9062675252762058e-14   1.0676312398447850e-13   8.4502636121039547e-14   9.9459249069740292e-14   1.1098991244123698e-13   9.8220422430696493e-14   1.1754445498918820e-13   1.6596007192049448e-13   1.3160494906679632e-13   2.0056597068095509e-13   1.8907889740666015e-13   1.1670406972751758e-13   2.0580052434632523e-13   1.8961484131354383e-13   2.1982214502765015e-13   1.2039769083551873e-13   9.4292787459016431e-14   1.6837255281367634e-13   1.4040577990105201e-13   1.8118463881721386e-13   1.7117340414321679e-13   1.6372137606404262e-13   1.8256169058311247e-13   3.5490673552971635e-14   5.2545147479775154e-15   6.6467105994473329e-15   2.1333661498381875e-14   3.5908745116956032e-14   1.2149291907565366e-14   1.9543560147777188e-14   8.7663433569781789e-15   5.9165521041218178e-15   6.4045640092701839e-15   6.2357671436391239e-15   4.1093364519838815e-15   4.3667137562156217e-15   3.0385322105483803e-15   4.2311573731864951e-15   5.8397737633409292e-15   4.1727421149664841e-15   5.4372995993825352e-15   5.9393592002608231e-15   7.3729950036456384e-15   2.0948807554548380e-15   4.7131451430178219e-15   1.5170998903612271e-15   3.2367205604347319e-15   1.2701440033958967e-15   2.7271971353824338e-15   1.6173863967592159e-15   2.9311538524168430e-15   1.1212854675070202e-15   2.4063214604177079e-15   5.1777648409652201e-15   5.5814679756134245e-15   1.2836516758198033e-15   2.2496635075177574e-15   1.8890134578094943e-15   2.5403705496493401e-15   2.6317487750081273e-15   3.1992425829411975e-15   3.3630142320686069e-15   3.6218885779897659e-15   5.1350049768581570e-15   4.3915119943885025e-15   7.1164900059654543e-15   6.3121322288844322e-15   9.4797267281343831e-15   7.8344997689940657e-15   1.1572383421871214e-14   1.0157174059353402e-14   1.0098346539156793e-14   1.0229766792611688e-14   7.4360354693291793e-14   6.2836242063186845e-14   6.6187066450928902e-14   5.3582413415604248e-14   9.3538197556039238e-14   4.2709970088457732e-14   5.6628735471624242e-14   7.5774620583811978e-14   6.5566467701555123e-14   6.0367673676603331e-14   6.6745979088814875e-14   1.8187837433281772e-13   1.6529014916136281e-13   2.8636755483540778e-13   2.2432863290210496e-13   2.8367762723398638e-13   1.5745877581059665e-13   1.2878104408192034e-13   7.7098193055694121e-14   1.3675762708549530e-13   1.3328895767282253e-13   1.0375475887879198e-13   9.5437263402761659e-14   1.0583098400761107e-13   6.4566825360920165e-14   8.7467479952292234e-14   9.5804802760669263e-14   9.2902059859989983e-14   8.3288366539630748e-14   8.7040601747435194e-14   1.2157655267817608e-13   1.6158761382235855e-13   8.2635132618845863e-14   9.8730121463420702e-14   1.1519357446912648e-13   1.0033211209178197e-13   1.2951789961035541e-13   1.3275917874512246e-13   1.5538536204185241e-13   2.2632579270523320e-13   2.1695001778970201e-13   2.2318382071632883e-13   2.5606842560943671e-13   2.2385350551279205e-13   1.0622551040971148e-13   2.0267220696942097e-13   2.2590881940059350e-13   2.1444010842837505e-13   1.8463914340044482e-13   1.6870206905976365e-13   2.1881777888119098e-13   2.0013592997110319e-13   2.0979367455245142e-13   2.1042396139530210e-13   2.0017643478958253e-13   2.2734426500065361e-13   1.3637715323082610e-13   2.8818528414074570e-14   6.0761895189537354e-14   1.2477036651325426e-14   6.7161353783805257e-15   3.3966235442525486e-14   3.5787765157893631e-14   2.6579149644525077e-14   5.9590454025865413e-15   9.8307537453885203e-15   3.5225358040277260e-15   5.7035962643521674e-15   6.0483382663692427e-15   4.4347160405716034e-15   7.3127006617740730e-15   5.6419447381716400e-15   7.3638656689740165e-15   9.6021435411440917e-15   6.3021424634465773e-15   5.8322697048571559e-15   3.5097016602264480e-15   4.8566131812303225e-15   2.1682001245829825e-15   2.9025719876618563e-15   3.4336469465418309e-15   2.7450487669356652e-15   3.0890334445209802e-15   3.8166110662896567e-15   1.8564459354031998e-15   2.7538141041917419e-15   7.1461557492218859e-15   6.8886499885906925e-15   2.7646335846934899e-15   2.0283256227625877e-15   3.5507843058203298e-15   3.2973627220000053e-15   3.0954881765560373e-15   2.7631437200111848e-15   5.0918802118134210e-15   3.7035190091993323e-15   2.9688742037889791e-15   3.5087545584160829e-15   6.7587494867053758e-15   4.7670778322210999e-15   8.6222666828660936e-15   6.3212111064697991e-15   1.4206531970398913e-14   1.2338220407809276e-14   9.6123874016111684e-15   8.2390116071529468e-15   8.4249964112539229e-15   8.8078108744916956e-15   6.4952130906463177e-14   7.4281137986988185e-14   5.2012673083455995e-14   7.2124310811571731e-15   1.1678107305177222e-14   9.4925594295993224e-15   7.2473885827205472e-14   6.4941495473585527e-14   1.9013038625425383e-14   1.7975442047496592e-14   3.6998342187746297e-14   2.8894994792271391e-14   6.9327489443477504e-14   7.7742671668266916e-14   4.9764886329677296e-14   4.5530285269138510e-14   5.7265849212792706e-14   4.7266321751498430e-15   6.7926111554442292e-15   2.1183567592303543e-13   1.8560005039404361e-13   1.4883896206497414e-13   1.2963826214840747e-13   2.8860529813900324e-13   1.8911796782218862e-13   1.1578353191328279e-13   2.6344324326817824e-13   2.1525419080412465e-13   3.0756616969393468e-13   1.9452990890490582e-13   4.3370689195926520e-13   4.4224166172262440e-13   2.1761805173534323e-13   2.4194493720496521e-13   2.0891195676532775e-13   1.4396842009637424e-13   2.2389409843899057e-13   2.2998022390767879e-13   1.2147605582144827e-13   1.2573227789952019e-13   8.8444330070970852e-14   1.0805861501465656e-13   1.2412678571626714e-13   9.7849373001303034e-14   1.2393781599111961e-13   1.9371887419326471e-13   1.8249143882892865e-13   2.6877463930110851e-13   1.6178857469733981e-13   2.1090893272106981e-13   1.2684720772768131e-13   2.1571811649066974e-13   5.4129108658254354e-13   5.5170887176326946e-13   1.9257633658867626e-13   3.8994817390691952e-13   2.2849798022332102e-13   2.4383063677183837e-13   2.3367566821813149e-13   2.0006775092706715e-13   2.1520117630490784e-13   3.3907115468663404e-13   3.5236733113823789e-13   2.5436902524709628e-13   3.3586147711838243e-13   1.7921851329143854e-13   2.3701066698168591e-13   5.4271797054910397e-13   3.0709229936402087e-13   1.0942674799545871e-13   1.9826836179544153e-13   1.5324930094367379e-13   6.0631196396290790e-14   1.7955332462226457e-13   3.0814008963232343e-14   1.2035853209266065e-14   6.6984782197901404e-15   4.7159685015834083e-14   4.5067932745732643e-15   8.5651788699214771e-15   1.1923331549885559e-14   8.5317338219298279e-15   1.0344229995447563e-14   6.2610557792218968e-15   1.1407625711081314e-14   7.3770297614535748e-15   5.6464586161422675e-15   4.4701754327144968e-15   1.0966796636603643e-14   7.5918615101289456e-15   1.4669253381745059e-14   5.4936414377969470e-15   3.5164550224887395e-15   8.4538955710481457e-15   2.5865124208865331e-14   1.9795253835246066e-14   4.3729543585493213e-15   6.2106330199009750e-15   3.4851459917655947e-15   3.8474085059642967e-15   2.2882658021167792e-15   2.8485838165190613e-15   3.7919738186921058e-15   3.6979775713218215e-15   2.3676329725786203e-15   2.7440214092690893e-15   4.9637293852805560e-15   3.4233547511724049e-15   7.9307250148743284e-15   5.2885287225307496e-15   2.5582635662748901e-14   1.7050894044851618e-14   2.1959492726248651e-14   2.2258742266227808e-14   3.5700936785639870e-14   2.9507169099623196e-14   1.5978866897958293e-14   1.0265732635873623e-14   1.2524137657923312e-14   1.4729013673418948e-14   1.2994633105482939e-14   4.4285104574044360e-14   3.7070774488139018e-14   6.1840348276007138e-14   5.3836326804868963e-14   7.5653914946220102e-14   6.5792981184328864e-14   6.2996158023816664e-14   5.6051582097862920e-14   6.1019281100628282e-14   1.1706410020723523e-13   5.2289374707916753e-15   1.3573705074097703e-14   1.2737042464203061e-14   8.9835165053392894e-15   1.3150178025898293e-14   7.6746089643429391e-14   7.8447527947918923e-14   3.7508442732969131e-14   2.4061358760479784e-14   5.0107184796773631e-14   5.0021444980286274e-14   6.7903767585701785e-14   5.8226668302829958e-14   7.5456883403146508e-14   4.2673735857846759e-15   5.7404182942804703e-15   2.6271239669940010e-15   4.3785898903560295e-15   5.3190709851930411e-15   4.6105609827304775e-15   1.4581135489348724e-15   1.6375879962169053e-15   2.1081639996163103e-15   5.9781463671668460e-13   3.3708076064250086e-13   3.1372835840918180e-13   6.1449327616835193e-13   2.7419631405124241e-13   2.9191434773061474e-13   1.3934309172318388e-13   1.4790834319429874e-13   3.0287564497414706e-13   2.2363152093712844e-13   2.9071448534993418e-13   3.9745599771637558e-13   3.3816395531573495e-13   4.0180261084330199e-13   3.7830763259186071e-13   3.0657063700541692e-13   4.9089126948442275e-13   2.9263032976897363e-13   4.9905391089575026e-13   2.2980182047875824e-13   1.8498647398525897e-13   2.2491571140670870e-13   2.9097170474547600e-13   2.0322568243587656e-13   3.9635955454509976e-13   5.1977185824723686e-13   2.0494614119119861e-13   2.6868663915795789e-13   4.3643360042323930e-13   2.4742070972355997e-13   4.0487939402168651e-13   5.8434381337492757e-13   7.3084464429844861e-13   8.6125476022710621e-13   7.8769213392299373e-13   7.6122022714073948e-13   1.3941707446966011e-12   6.3578895204014037e-13   8.8728500517305607e-13   6.3853738753234520e-13   6.7433114090734583e-13   8.6543404824142169e-13   5.6320395725927437e-13   8.4811983890924185e-13   2.7538344581796446e-13   2.3509845182246861e-13   9.5804923080092729e-14   9.5087429821496362e-14   1.2422191450073647e-14   2.7420424501251589e-14   1.0757509262418507e-14   1.2003534066396571e-14   2.5282195240284185e-14   1.8485751837732978e-14   2.7893387194504367e-14   5.2488019020494274e-14   4.1445200986533332e-14   4.1944839622991978e-14   3.2541981563352851e-14   1.9959121242450655e-14   2.3521575228451768e-14   1.2642825724147418e-14   6.0561722256088124e-15   4.9056505618915641e-14   6.7492003686576983e-14   6.2426022711018396e-15   6.6101450216355962e-15   2.1179491339559980e-15   6.1441582856104272e-15   3.5885718741367333e-15   7.8581467676595474e-15   3.6323725701144762e-15   6.9869686259114462e-15   1.7079490849638751e-15   1.5495846080272233e-14   5.0271367239380312e-15   2.0025660067827859e-15   5.4322714739595121e-15   2.7456707090277514e-14   2.1624441633870039e-14   2.0755410633940927e-14   2.4245017032314215e-14   3.4966644663247017e-14   2.6052284649729387e-14   2.5943498192044776e-14   3.0210787545326949e-14   1.4118676118736033e-14   2.2149442710717762e-14   5.1455112591530883e-14   4.3616853720538975e-14   6.4189012972764176e-14   5.5414313710521811e-14   8.0639242150974303e-14   7.6617409379774716e-14   8.0028227057628938e-14   7.0163223471159666e-14   4.5835953214323568e-14   5.8174493580259587e-14   7.2177807006972696e-14   6.3176052243940398e-14   2.5291763792469976e-15   3.3972364660881845e-15   2.7533680629834407e-15   4.1207428760582027e-15   3.5252707284964410e-15   5.6271832336437945e-15   4.3380296161473896e-15   7.7974201901376495e-15   5.5392149139206610e-15   1.1354878932485236e-14   7.1030984879150249e-15   9.0429822431377990e-14   9.9155142075072454e-14   1.4286992851767543e-13   1.7414479691092119e-13   6.2673954294717267e-15   1.0896933518097153e-14   1.3726568086159708e-14   1.8005948204996939e-14   1.2542357531269363e-14   1.4451319814139382e-14   1.9265669661178908e-14   8.6585804913974798e-14   9.4716441034743343e-14   5.1119419722210380e-14   3.4640072147639696e-14   6.3208219749091412e-14   5.3655090249677609e-14   7.7058363754094732e-14   1.4387679690060485e-15   2.4488577255035162e-15   2.0597664425871204e-15   3.0307272140399160e-15   3.6171369402691089e-15   5.7592984991212932e-15   6.4470383295046003e-15   3.0087133608587537e-15   4.9382782569097815e-15   8.7362383509052254e-15   1.0832310567105266e-14   3.1255016003633207e-15   2.7818468445516065e-15   3.4373669681171474e-15   1.9994603907632362e-15   2.9341088458278137e-15   2.1419659301645760e-15   1.8376410162056664e-15   1.9337925719248247e-15   1.6338265945745541e-15   1.7011693110795906e-15   1.8014284237704053e-15   5.3617420272574453e-15   6.5946622835544267e-15   8.2037263776959680e-15   3.7086949358299864e-15   6.4778903796602849e-15   4.2686196518437253e-15   4.3507056089965729e-15   6.9384325393299240e-15   8.3431177014967478e-15   1.1526927558734887e-14   3.6553435222556745e-15   6.0320187300680290e-15   6.1118690741562965e-15   8.0968621791919114e-15   2.0921871267505600e-15   3.9373998927170559e-15   3.5721310305177055e-15   1.5724994375369050e-15   2.3966620737120929e-15   1.0848160012210274e-15   1.8596541530525906e-15   7.9988852083221457e-16   1.4560773819510947e-15   5.5264629774123928e-16   9.1144082878891187e-16   2.5470033953784962e-15   6.5366556240593859e-15   7.7050428141207322e-15   5.4870763257538125e-15   1.0732205218937615e-14   1.1596936866343456e-14   9.6398651271128506e-15   8.9826094528752185e-15   7.2988697136158744e-15   3.8267349174972367e-15   4.3520539615398236e-15   3.7278611901255223e-15   2.1144818951656593e-15   2.1338042273373299e-15   1.9574475577149618e-15   1.8545971767790343e-15   3.6093283125732747e-15   3.4027723464253039e-15   1.9758254490442268e-15   1.9370890340157847e-15   2.8827740272485756e-15   2.2070568565390402e-15   3.1937456183809429e-15   4.7885759395946659e-13   7.2419002652519219e-13   6.8876991072506685e-13   5.1351670295642593e-13   2.8197597777844220e-13   6.1539554584915552e-13   7.3270333000891384e-13   5.4108066951102892e-13   1.0485961135954177e-12   1.1088490365438692e-12   7.6757814273463649e-13   1.4919535165420876e-13   1.5831450617341555e-13   1.1067192310578256e-13   3.7365649709095053e-13   2.4612865300748574e-13   5.3427476333504592e-13   3.1553992659689408e-13   4.6570028119133731e-13   5.0710399369053429e-13   2.4316312742607220e-13   1.5609704225254267e-13   6.8105381645712016e-13   5.8896932648949296e-13   8.5536658572003007e-13   2.4164773721382241e-13   5.5168715961510171e-13   2.1829322656334413e-12   2.2115711880281685e-12   1.7208731670152568e-12   2.4700148326714651e-12   2.2701065095771766e-12   2.1534140639188047e-12   2.1969257693369382e-12   1.9581214635004566e-12   2.0147429347175834e-12   2.2489827199328559e-12   7.9872410269778636e-13   9.9362006629845154e-13   1.0920233508737577e-13   6.0213917476779653e-14   1.3740567809422627e-13   8.2242117635952098e-14   9.2420876697695184e-14   1.6243714100877462e-13   7.2599346896005778e-14   1.1420026030169566e-13   1.1005721785480300e-13   1.5654618449784553e-13   1.0352620074844953e-13   1.2103596131421738e-13   6.4891453860064764e-14   4.3045738344052717e-14   2.2395836536423841e-14   4.1141514757435161e-14   1.4758807394820171e-14   7.2456257426325273e-14   6.7948144165354166e-14   4.1792838226658158e-14   4.5534960330780573e-14   3.0579893126051953e-15   2.4478705963665200e-15   2.4642712629820422e-14   1.1405278097572278e-14   4.4815219210200534e-14   6.9745172274771117e-15   7.4938876672834853e-15   5.8336127218921019e-15   4.0050392741860259e-15   4.6558783627620820e-14   5.1931080635640099e-14   4.1486813640339255e-14   4.8731948734745319e-14   6.3889121452181199e-14   7.2467078698750058e-14   2.4405915266522725e-14   1.0880662874457196e-14   5.1110628556243523e-14   4.7140660134339077e-14   6.0872007240037305e-14   4.8969557572367720e-14   6.0549969417378710e-14   4.8385467787996274e-14   3.8767082307877672e-14   7.3388261022118241e-14   6.6495189091456642e-14   5.3602315844925748e-14   6.0559342875755071e-14   4.2344742096959510e-14   6.8873481392978480e-14   6.0224278634276045e-14   6.9846892578524793e-14   5.8990321665208935e-14   1.7436160566552452e-14   1.4285982207893092e-14   1.5272566325775774e-14   1.7327620335268431e-14   1.9622849754744934e-15   2.7727039533787097e-15   1.8949026117729034e-15   3.6076226649934828e-15   3.2986956266577286e-15   3.3945917231169148e-15   3.4756760650604800e-15   5.4261416071389316e-15   3.8453587522950220e-15   5.4564122803335361e-15   5.4415131164135194e-15   5.9121505226903300e-15   4.3708230573414856e-15   1.3203862522316668e-13   1.3887454100155397e-13   1.9929304188126833e-13   1.9301268342229792e-13   2.2404037962489831e-14   2.3099272942990050e-14   1.4624282926202501e-14   2.3926466849379762e-14   1.7663927414773049e-14   3.7308288434206921e-14   2.7271079320320017e-14   1.2331876798483427e-13   1.3690016705229651e-13   3.7109417526928278e-14   4.9373191205275967e-14   9.2048997035472949e-14   4.3913618857272107e-15   2.8001885546042116e-15   3.5842515453680363e-15   8.1210535492663774e-15   8.3258526124019076e-15   1.1396673014354138e-14   2.2174651376651769e-14   2.5272768335463765e-14   4.4838211088176862e-15   4.3416510802241127e-15   3.3086074855288796e-15   4.8831530020082197e-15   2.3683731724665670e-15   2.7473564476023026e-15   4.5437828016042703e-15   3.5743340880055118e-15   3.5067364990261249e-15   6.8136229529744954e-15   1.3560336453544761e-14   1.5193239590010623e-14   1.2486065008410837e-14   1.7505484959282649e-14   9.7678218858856091e-15   1.1545694677594813e-14   7.0612187817292535e-15   1.1827281679237524e-14   1.3493890711532793e-14   1.7632241481958852e-14   1.6080181751557726e-14   1.6722638709579521e-14   1.1835164166773152e-14   8.5813493155682739e-15   1.5768435326734660e-14   3.2930038946477327e-15   3.2032760239965080e-15   5.8810254941707865e-15   1.0440793035649055e-14   3.6271013307153066e-15   4.4100449343907399e-15   2.0662984436576975e-15   3.3155822793579703e-15   7.1491058061442079e-16   5.1278717560