<?xml version="1.0"?>
<VTKFile type="UnstructuredGrid"  version="0.1"  >
<UnstructuredGrid>
<Piece  NumberOfPoints="21266" NumberOfCells="39409">
<Points>
<DataArray  type="Float64"  NumberOfComponents="3"  format="ascii">7.1769 4.82493 0  7.15599 4.841 0  7.13689 4.8551 0  7.1158 4.86986 0  7.09545 4.8833 0  7.0735 4.89909 0  7.2004 4.80826 0  7.2192 4.79324 0  7.2427 4.77631 0  7.2615 4.76004 0  7.2803 4.7447 0  7.2991 4.72921 0  7.31718 4.7141 0  7.33791 4.7 0  7.35423 4.6812 0  7.4495 4.58896 0  7.4683 4.56902 0  7.48701 4.5496 0  7.5039 4.5308 0  7.52 4.51291 0  7.53648 4.4932 0  7.5529 4.47481 0  7.17401 4.79802 0  7.15325 4.81426 0  7.13467 4.82894 0  7.11397 4.84383 0  7.09237 4.85558 0  7.07198 4.87138 0  7.05309 4.9115 0  7.05196 4.88634 0  7.0312 4.92685 0  7.0077 4.94116 0  7.19575 4.78239 0  7.21754 4.76837 0  7.23886 4.75218 0  7.25562 4.73534 0  7.27434 4.71992 0  7.29305 4.70439 0  7.3743 4.66399 0  7.3931 4.64533 0  7.4119 4.62616 0  7.4307 4.6086 0  7.31147 4.68903 0  7.32976 4.67219 0  7.34743 4.65373 0  7.56907 4.4556 0  7.58329 4.4368 0  7.59837 4.418 0  7.61305 4.3992 0  7.42335 4.581 0  7.44078 4.56169 0  7.47657 4.5264 0  7.45879 4.54253 0  7.49593 4.50844 0  7.51006 4.48936 0  7.52531 4.46995 0  7.54154 4.45075 0  7.1155 4.82061 0  7.16987 4.77069 0  7.14788 4.78758 0  7.12908 4.8052 0  7.09123 4.82654 0  7.06881 4.84355 0  7.04978 4.8604 0  7.02821 4.8991 0  7.03421 4.87544 0  7.00476 4.91014 0  6.9842 4.95543 0  6.9607 4.96994 0  6.93934 4.982 0  6.9184 4.99413 0  6.8949 5.0077 0  6.98145 4.92568 0  6.87443 5.0196 0  6.8526 5.03151 0  6.8291 5.04427 0  6.80549 5.0572 0  6.7821 5.06881 0  6.7586 5.08225 0  6.7351 5.09287 0  6.7116 5.10521 0  6.6881 5.11648 0  7.19272 4.75504 0  7.21665 4.74609 0  7.23042 4.72455 0  7.24824 4.71067 0  7.26973 4.69518 0  7.28646 4.67889 0  7.36559 4.63485 0  7.38342 4.61517 0  7.40426 4.59902 0  7.30423 4.66219 0  7.32137 4.64451 0  7.33935 4.62565 0  7.6281 4.379 0  7.6422 4.35929 0  7.6563 4.34009 0  7.67443 4.3193 0  7.55814 4.43199 0  7.57462 4.4151 0  7.59006 4.39525 0  7.60188 4.37551 0  7.4009 4.57326 0  7.41396 4.55444 0  7.4307 4.5342 0  7.47493 4.50372 0  7.44923 4.51424 0  7.485 4.48594 0  7.49758 4.46571 0  7.51313 4.44582 0  7.53056 4.42631 0  7.16772 4.73996 0  7.10435 4.80157 0  7.14271 4.7603 0  7.12093 4.78085 0  7.08185 4.80093 0  7.06371 4.81511 0  7.04358 4.832 0  7.02383 4.85045 0  7.00539 4.87652 0  6.97813 4.89407 0  6.95911 4.94168 0  6.93971 4.95578 0  6.91804 4.97033 0  6.89554 4.98171 0  6.87489 4.99508 0  6.95463 4.91127 0  6.85249 5.00745 0  6.82973 5.01717 0  6.80615 5.02883 0  6.78262 5.04136 0  6.75883 5.05356 0  6.73538 5.06548 0  6.71171 5.07745 0  6.66736 5.1277 0  6.6889 5.09005 0  6.66857 5.10307 0  7.6892 4.29795 0  7.78096 4.1407 0  7.70249 4.277 0  7.7691 4.16195 0  7.75678 4.183 0  7.7174 4.25497 0  7.72912 4.23 0  7.74292 4.2065 0  7.7926 4.11952 0  7.19623 4.72095 0  7.22149 4.69784 0  7.24709 4.68864 0  7.26072 4.66745 0  7.27958 4.65508 0  7.35596 4.60523 0  7.37586 4.58123 0  7.29133 4.63183 0  7.31613 4.62148 0  7.32791 4.59966 0  7.61643 4.3556 0  7.63282 4.3371 0  7.64817 4.3144 0  7.6624 4.29423 0  7.5494 4.40779 0  7.56853 4.39535 0  7.57509 4.37324 0  7.58865 4.35111 0  7.38542 4.55004 0  7.40218 4.5263 0  7.41892 4.50587 0  7.45946 4.48569 0  7.43505 4.48835 0  7.46877 4.46262 0  7.48316 4.44059 0  7.50057 4.42157 0  7.52053 4.39994 0  7.156 4.70458 0  7.1408 4.73494 0  7.09057 4.77616 0  7.10931 4.74763 0  7.05941 4.78525 0  7.0402 4.80507 0  7.01422 4.81688 0  6.99401 4.83891 0  6.97269 4.86114 0  6.94968 4.87903 0  6.93339 4.92954 0  6.91887 4.94835 0  6.89523 4.95505 0  6.87181 4.96799 0  6.85528 4.98657 0  6.92596 4.8974 0  6.83142 4.99095 0  6.80584 4.99996 0  6.78413 5.01302 0  6.73529 5.0367 0  6.75899 5.02675 0  6.71146 5.04906 0  6.68777 5.06204 0  6.6458 5.13871 0  6.62098 5.1512 0  6.5988 5.16279 0  6.64597 5.11434 0  6.66562 5.07608 0  6.64892 5.09369 0  6.57429 5.1747 0  6.5518 5.18561 0  6.5283 5.19672 0  7.67678 4.27344 0  7.65342 4.27244 0  7.76791 4.12016 0  7.75605 4.13966 0  7.68816 4.2524 0  7.74189 4.16147 0  7.72738 4.18138 0  7.70047 4.22914 0  7.71326 4.20492 0  7.8038 4.0984 0  7.81472 4.0749 0  7.77971 4.09887 0  7.86109 3.9809 0  7.18253 4.67983 0  7.22404 4.66203 0  7.25454 4.63507 0  7.27021 4.60915 0  7.34119 4.57632 0  7.35416 4.54866 0  7.29325 4.59534 0  7.31287 4.5746 0  7.13581 4.66432 0  7.60481 4.33106 0  7.62389 4.31457 0  7.63238 4.28784 0  7.54401 4.37792 0  7.5587 4.35201 0  7.57738 4.3254 0  7.36708 4.51353 0  7.39328 4.49781 0  7.40977 4.47505 0  7.43809 4.4633 0  7.4493 4.43448 0  7.46959 4.41333 0  7.49389 4.39733 0  7.50474 4.36871 0  7.10704 4.69993 0  7.06136 4.74104 0  7.02006 4.77609 0  6.94628 4.8503 0  6.98557 4.80104 0  6.96211 4.8272 0  6.92021 4.85963 0  6.90174 4.92376 0  6.86584 4.93962 0  6.83822 4.96125 0  6.88978 4.87871 0  6.80696 4.9733 0  6.78034 4.98216 0  6.76196 5.00183 0  6.71202 5.019 0  6.73503 5.00634 0  6.68661 5.03366 0  6.66135 5.04676 0  6.62341 5.12492 0  6.60062 5.13791 0  6.57598 5.1491 0  6.62498 5.09806 0  6.63497 5.0685 0  6.55217 5.15776 0  6.52795 5.1681 0  6.5048 5.20905 0  6.4813 5.2194 0  6.45602 5.2311 0  6.50367 5.17943 0  8.175240000000001 2.9281 0  8.17483 2.9046 0  8.17423 2.8811 0  8.174060000000001 2.8576 0  8.17165 2.8341 0  7.66054 4.25141 0  7.6336 4.25542 0  7.75902 4.10052 0  7.7333 4.1392 0  7.74084 4.11642 0  7.6704 4.2277 0  7.71251 4.15331 0  7.69687 4.17903 0  7.68277 4.20345 0  7.85116 4.0044 0  7.83862 4.0279 0  7.82746 4.0514 0  7.78904 4.07645 0  7.80125 4.05338 0  7.76369 4.07955 0  7.88387 3.9104 0  7.86962 3.9574 0  7.8772 3.93447 0  7.83694 3.9834 0  7.84642 3.96163 0  7.9125 3.8399 0  7.9007 3.86401 0  7.89251 3.8869 0  7.9242 3.81828 0  7.93714 3.7929 0  7.94966 3.7694 0  7.96124 3.7459 0  7.9712 3.72394 0  7.9806 3.7023 0  7.99072 3.6801 0  8.001659999999999 3.6566 0  8.087149999999999 3.4216 0  8.133559999999999 3.2571 0  8.095409999999999 3.3981 0  8.16422 3.0926 0  8.17474 2.9516 0  8.174110000000001 2.9751 0  8.166729999999999 3.0691 0  8.172639999999999 2.9986 0  8.170400000000001 3.0456 0  8.171239999999999 3.0221 0  7.17467 4.63462 0  7.21672 4.6218 0  7.23833 4.59746 0  7.26321 4.58321 0  7.31987 4.54885 0  7.33555 4.522 0  7.28125 4.55496 0  7.078 4.64761 0  7.11655 4.61904 0  7.14452 4.58878 0  7.59744 4.29841 0  7.60567 4.26319 0  7.5245 4.34575 0  7.54874 4.32635 0  7.55631 4.29734 0  7.33584 4.49112 0  7.36847 4.46828 0  7.40618 4.43358 0  7.43005 4.39967 0  7.46198 4.37186 0  7.48449 4.33447 0  7.04196 4.68162 0  7.00114 4.7206 0  6.97852 4.76275 0  6.92582 4.82296 0  6.94354 4.78428 0  6.88373 4.8294 0  6.85821 4.90133 0  6.82739 4.92231 0  6.80779 4.94706 0  6.85047 4.85705 0  6.77763 4.95422 0  6.68923 5.00653 0  6.74478 4.97187 0  6.70805 4.98747 0  6.63119 5.02825 0  6.66197 5.01202 0  6.59914 5.10863 0  6.58045 5.12778 0  6.55443 5.13039 0  6.59803 5.07802 0  6.6056 5.04652 0  6.528 5.13892 0  6.50252 5.14969 0  6.43421 5.2405 0  6.48009 5.19136 0  6.45715 5.20361 0  6.43649 5.2163 0  6.47803 5.16133 0  6.4108 5.25202 0  8.17079 2.8106 0  8.167149999999999 2.7871 0  8.154590000000001 2.93955 0  8.154109999999999 2.91651 0  8.15418 2.89326 0  8.153309999999999 2.87014 0  8.151289999999999 2.84913 0  8.149430000000001 2.82814 0  7.6399 4.22787 0  7.60964 4.22977 0  7.73817 4.08677 0  7.71461 4.12536 0  7.71671 4.10318 0  7.69331 4.13276 0  7.6504 4.20218 0  7.68013 4.15337 0  7.6652 4.17775 0  7.82434 4.00569 0  7.81248 4.02823 0  7.77107 4.05359 0  7.78856 4.03239 0  7.73981 4.05725 0  7.86843 3.89261 0  7.86032 3.91613 0  7.85377 3.9396 0  7.81516 3.98384 0  7.82305 3.96326 0  7.83403 3.94522 0  7.8965 3.81729 0  7.88316 3.84225 0  7.87622 3.86812 0  7.85458 3.87668 0  7.90753 3.79329 0  7.87802 3.79373 0  7.9333 3.74821 0  7.91938 3.76881 0  7.94615 3.72557 0  7.92535 3.72614 0  7.95529 3.70353 0  7.9654 3.68124 0  8.01069 3.6331 0  8.01989 3.6096 0  7.97586 3.65705 0  7.98482 3.63413 0  8.05498 3.5156 0  8.029820000000001 3.5861 0  8.03876 3.5626 0  8.04772 3.5391 0  8.030720000000001 3.51946 0  8.080640000000001 3.4451 0  8.072329999999999 3.4686 0  8.06363 3.4921 0  8.0641 3.42609 0  8.07094 3.40327 0  8.16114 3.1161 0  8.156940000000001 3.1396 0  8.138909999999999 3.2336 0  8.15274 3.1631 0  8.144220000000001 3.2101 0  8.14855 3.1866 0  8.10263 3.3746 0  8.10993 3.3511 0  8.115780000000001 3.3276 0  8.122439999999999 3.3041 0  8.12876 3.2806 0  8.10966 3.26397 0  8.11359 3.24102 0  8.078049999999999 3.37987 0  8.14321 3.07889 0  8.141349999999999 3.10148 0  8.15352 2.96247 0  8.15235 2.9842 0  8.145149999999999 3.05572 0  8.15104 3.00933 0  8.14743 3.03243 0  7.19201 4.57985 0  7.23443 4.55731 0  7.2971 4.50674 0  7.25047 4.51791 0  7.02161 4.61732 0  7.06736 4.59854 0  7.09621 4.56242 0  7.14317 4.54799 0  7.56834 4.26623 0  7.58264 4.23842 0  7.51214 4.30231 0  7.53449 4.27134 0  7.31111 4.44476 0  7.35601 4.42209 0  7.37649 4.38318 0  7.40713 4.35132 0  7.43696 4.31869 0  7.46789 4.29547 0  6.95252 4.58363 0  6.9763 4.65998 0  6.93501 4.72433 0  6.90184 4.77571 0  6.85805 4.78593 0  6.8346 4.81522 0  6.81401 4.88663 0  6.78449 4.91855 0  6.81425 4.84579 0  6.73904 4.92209 0  6.67455 4.97849 0  6.70206 4.94517 0  6.59506 5.01185 0  6.62898 4.98162 0  6.56515 5.09576 0  6.52968 5.10747 0  6.56876 5.04596 0  6.50118 5.12005 0  6.47599 5.13011 0  6.41366 5.22638 0  6.41804 5.20392 0  6.45471 5.17425 0  6.43421 5.18919 0  6.45079 5.1429 0  6.3873 5.26213 0  6.3906 5.23532 0  6.3638 5.27155 0  6.3403 5.28103 0  6.3168 5.29122 0  6.2933 5.29956 0  6.2698 5.30896 0  8.119630000000001 2.5051 0  8.164619999999999 2.7636 0  8.1614 2.7401 0  8.15827 2.7166 0  8.156560000000001 2.6931 0  8.15221 2.6696 0  8.147919999999999 2.6461 0  8.145910000000001 2.6226 0  8.12731 2.5286 0  8.131930000000001 2.5521 0  8.14226 2.5991 0  8.137460000000001 2.5756 0  8.143140000000001 2.80375 0  8.14217 2.77806 0  8.136570000000001 2.94954 0  8.133369999999999 2.92906 0  8.13245 2.90452 0  
[...]
<CellData  Scalars="f_1091"> 
<DataArray  type="Float64"  Name="f_1091"  format="ascii">1.9187299161060614e-09   1.9578273130986395e-09   1.1619103247000045e-08   2.2350602000204442e-09   9.7202093995254209e-09   3.4304407042349660e-09   1.0376315232562603e-08   5.6128385818747169e-09   1.4148658364695397e-08   5.4071796907868808e-09   1.5848177304417868e-08   5.5402191296071887e-09   1.4333794372230212e-08   8.7093161126640964e-10   1.1971291170017104e-08   6.4583959975635467e-10   8.5596851263549958e-09   5.1778259297296633e-11   6.5306847484028568e-09   5.6334876010739413e-11   7.0205610888409782e-09   2.4686090139219361e-10   6.8463146891094418e-09   4.4098100200316966e-10   5.7408160246281042e-09   1.0188720015557107e-09   6.5590942101424565e-09   1.6184252370409918e-09   7.7393738121924328e-09   2.2843910058148950e-09   8.5946471070240044e-09   5.7833794076345592e-09   6.0547113282086432e-09   1.1102164985186802e-08   5.9895016693188298e-09   5.8031011751774893e-09   1.1982852385397772e-08   1.2330616933361058e-08   5.6207066651779895e-09   7.2508782384896452e-09   5.1101510339888903e-09   7.8491706246478492e-09   5.4139775514014938e-09   9.7541375614881383e-09   5.4331035492743778e-09   1.0174818241448849e-08   8.4926972696501012e-09   1.1609120795077229e-08   1.1565775582133395e-08   1.2636387322447224e-08   9.0540821425697030e-09   1.0924794076726191e-08   6.5034491183728192e-09   1.6185025841806903e-08   1.0126126517843129e-08   1.5817073889742253e-08   1.7858436938771125e-08   1.3004752149906998e-08   1.5257259608688979e-08   8.2930447627391146e-09   1.5921660832815078e-08   1.3957629194481634e-08   1.1941188198612912e-08   1.3945642842952604e-08   2.5470010367194569e-08   1.3043540946017945e-08   2.8939984854356289e-08   9.4734104311225481e-09   1.2082955367648667e-08   6.4315767817961577e-09   9.6127562520531473e-09   7.1348658629208913e-09   1.0516513397844312e-08   6.8353027398088828e-09   7.9753330117340340e-09   5.8985009703246393e-09   5.5090217583689149e-09   6.1822698968092339e-09   7.0115897025734549e-09   3.6271107218591300e-09   9.9139658783962007e-09   3.7093997794794795e-09   1.2533776251579072e-08   5.1264624157448652e-09   8.8171842540988078e-09   1.4579941578798580e-08   8.2929551627417958e-09   6.2371034540620224e-09   8.3271033082065984e-09   1.0646640377389166e-08   1.0519375509707909e-08   6.8321906766531456e-09   4.1487882491474357e-09   9.1425114663466260e-09   3.8191956854139682e-09   7.0496041229613234e-09   3.3878833641799063e-09   4.8995402269354391e-09   2.7269577749863974e-09   6.9487104431304059e-09   1.0884842462700877e-08   9.7666626716687306e-09   9.4896289600336389e-09   1.2042959550906570e-08   1.2295733652590960e-08   8.9156865736420697e-09   1.1354438680524340e-08   1.0390156324257148e-08   1.3656383474677181e-08   6.8661668084020030e-09   7.1270915512538785e-09   9.1807926893260346e-09   9.7136735404917453e-09   1.0654580272464969e-08   1.1426421208765019e-08   1.0249514377154504e-08   1.1100765351797682e-08   1.2105618675714462e-08   7.6638531532946673e-09   1.1863787063764939e-08   1.2845640981766581e-08   1.4432501870686328e-08   1.1654395144904568e-08   1.8401752172207693e-08   1.1441834651555346e-08   9.4979673104354587e-09   1.7090009010603379e-08   1.5444142486367905e-08   1.5827349078191930e-08   1.4639250876679856e-08   1.4849825420316960e-08   1.9834406878409858e-08   3.1371461039388893e-08   2.1713504825111780e-08   2.9135898011071751e-08   3.2041091958428766e-08   3.9566141248082166e-08   1.0859857987601073e-08   2.5725098461917038e-08   8.0371598522595017e-09   1.7663269461556936e-08   6.8792875334967837e-09   1.4931115184506093e-08   8.6302294870300699e-09   1.6312667772069362e-08   6.0616612539036170e-09   1.3499135036780401e-08   2.7205123454944454e-08   2.9453468181793215e-08   6.5265720905243007e-09   1.2580647930047679e-08   7.9859766541532072e-09   1.3680784486585117e-08   8.0662837722443007e-09   1.5508836669130221e-08   7.1200400489647121e-09   1.3695298882794606e-08   5.8096691787987455e-09   1.2348774841387315e-08   5.4561409745732137e-09   1.1498390992602724e-08   3.6695705015280449e-09   9.6199451368235714e-09   2.4693657129571929e-09   7.6319524034829166e-09   1.1498107030630713e-09   4.8240465652123906e-09   1.2651995219816804e-08   1.1966089576650384e-08   2.7716134063557241e-08   8.2804764154929440e-09   2.6270342129774364e-08   6.4758908193163609e-09   1.0452244368932516e-08   6.6388886246585072e-09   1.1051737432833840e-08   7.6050724686649914e-09   8.8494033580611157e-09   1.3872485295673972e-08   1.0256879873005806e-08   1.3246156350561552e-08   1.3035983044494293e-08   1.7409547458164806e-08   9.5970981423506379e-09   1.2061548483317363e-08   8.6621704178098552e-09   1.2956415914571239e-08   1.0538903931748062e-08   1.0555595704803632e-08   2.2326545266252390e-09   7.6693958005089637e-09   2.2933996626920065e-09   6.8165566493238668e-09   1.7896872962535301e-09   5.5374183054622048e-09   1.2984666576099170e-09   8.9100444260784712e-09   7.1604746054346544e-09   9.8820114020015197e-09   6.3915151964519763e-09   8.1729128336529119e-09   6.9523096541478859e-09   8.1753428183190401e-09   8.0025225525128239e-09   8.6266743511632439e-09   1.1294793914808770e-08   1.7571456270002789e-08   1.3064740801701707e-08   1.8038381025063650e-08   1.3298992892308605e-08   1.3374447849974181e-08   9.0296672848891889e-09   9.9471720383766788e-09   1.4148055433200211e-08   1.2274972677964111e-08   1.0084900480694184e-08   1.0401944169449960e-08   1.1706830456258577e-08   1.4702570500097038e-08   1.2883382607511134e-08   1.3788796068140124e-08   1.3438724600107491e-08   1.0868816235446407e-08   2.5801518234184563e-08   1.2809045639524530e-08   3.0720928044237842e-08   1.4886674156590926e-08   9.6261678195295111e-09   2.4680987795112409e-08   3.0820582013809153e-08   3.5070367581440509e-08   1.6045451229971848e-08   2.2227570064748179e-08   1.3424812034148653e-08   1.9994716584304814e-08   2.7866699238147165e-08   1.9227640517421216e-08   3.6036922799571324e-08   2.9650282853839103e-08   3.7174667171484715e-08   4.9463780486666705e-08   3.0873277262330253e-08   2.8657877880994083e-08   1.8366679484474624e-08   2.5003647417099981e-08   1.1538432437894372e-08   1.5321578555281218e-08   1.8202869660645887e-08   1.4376477158368039e-08   1.6567853418068288e-08   2.0264269482522213e-08   1.0366056954862036e-08   1.5182866323530095e-08   3.3544914391117496e-08   3.1844247861185021e-08   1.5187279971202288e-08   1.1365230734400960e-08   1.8361012021156903e-08   1.8403735935573221e-08   1.3857072412200311e-08   1.4772668773447505e-08   1.2412937559363376e-08   1.3287340527272407e-08   1.3149918564882460e-08   1.1814402309653856e-08   1.0482783426385692e-08   1.0349587607348884e-08   8.1125702193036806e-09   8.4382668201949875e-09   1.1220977385475403e-09   3.2820514152786160e-09   5.0296732138486581e-09   6.6188403224982712e-09   3.1909570278470752e-09   4.6464067553535498e-09   1.3037428128736091e-09   5.7165811301695464e-09   6.6030769960075666e-09   2.2999549844084557e-09   2.0760717357901881e-09   8.0594138414224513e-09   1.4310478122301127e-09   7.4092194250516090e-09   1.5714051350315383e-09   8.1248787342068806e-09   1.7528118912119414e-09   1.1119109148829876e-08   2.4857562266949360e-09   1.0913812352704019e-08   1.7418183721562465e-09   1.1841764156183305e-08   1.1658211247895890e-08   3.1872565234215778e-09   7.2900665189562160e-09   2.6815580810666824e-08   4.9335430452037856e-08   1.2420757028681430e-08   1.6861119757738442e-08   5.8379925132398234e-08   1.3170596658184671e-08   1.0002460394731942e-08   2.4925598309007124e-08   1.9590431589880071e-08   1.9224960255284619e-08   1.2087762520086782e-08   2.1664382117077315e-08   2.4094174461535256e-08   1.0847175062180246e-08   1.3928606200103419e-08   1.3502448387024868e-08   1.3925054269665088e-08   1.9826441189798236e-08   4.9406705436607039e-08   6.9564104235096564e-09   8.5099250135298267e-09   7.6846813524911727e-09   9.6390251657926564e-09   8.0476140380571205e-09   8.2801592451673369e-09   1.0368960875803585e-08   9.6956383164894023e-09   1.0543480900429833e-08   1.7775866230083573e-08   1.1447350718767452e-08   1.5242977400010018e-08   1.1112514049588709e-08   9.2405797740448805e-09   2.0021731921021350e-08   2.7340522543449992e-08   1.6923541327851960e-08   2.8614214620554141e-08   1.4060247411981585e-08   1.9002946824684401e-08   1.3292212911433151e-08   1.4141924255802789e-08   2.0526225901513766e-08   1.6728075518057477e-08   2.6104875362719980e-08   1.5484426514936506e-08   2.3798465800429203e-08   1.5715364263612273e-08   1.9987460306409000e-08   1.9825196569812057e-08   2.6064355290660281e-08   4.8038698869972876e-08   8.0784481633533014e-08   5.4570655926961688e-08   6.4882884946203130e-08   1.6964513624175755e-07   4.2733458272674401e-08   4.2525168922050836e-08   2.7679305193808375e-08   1.3798389415942003e-07   2.0683142442929807e-08   4.4237372567978585e-08   5.6561140401814561e-08   4.1738156971194441e-08   5.1558770718765952e-08   2.7833027991992376e-08   4.1222939882470564e-08   2.8157834286459455e-08   2.6811429366528748e-08   2.0358029561002351e-08   4.9726959327026103e-08   3.6806613597992005e-08   6.5782602009515290e-08   2.6767987166370497e-08   1.7920576356037659e-08   3.8551703253850991e-08   7.4461695469175044e-08   6.2714080818312311e-08   2.3494798662935499e-08   3.0982162334315869e-08   1.8366161831398111e-08   2.0423562529428687e-08   1.1655335880472624e-08   1.5926187650538740e-08   1.1302870038370575e-08   1.5737950719269431e-08   1.2216061045986649e-08   1.2211646238957739e-08   9.3741073973890917e-09   9.1677168684681833e-09   7.8032390127726337e-09   8.0704148027403504e-09   9.5312224034035687e-10   3.5773868683718663e-09   7.6860755835386021e-10   3.5622888313041070e-09   1.1156445382689160e-09   2.2369519435693180e-09   4.2876234259633143e-09   2.6837173095503712e-09   5.5898568922734463e-09   5.1988948184162270e-09   1.0027880619274444e-08   1.2101972700281494e-09   3.1707521667774631e-09   1.6334591413465344e-09   3.8023211127794786e-09   2.1406106479851980e-09   4.3154997721369420e-09   8.1389443724223176e-09   5.5088288328798908e-09   7.4728505804495106e-09   1.0551275494341533e-08   5.7731295792102990e-09   6.6041661524188035e-09   8.5863831409363625e-09   7.7743685585260648e-09   6.2845373564967066e-09   1.1199994348897059e-08   9.8143379242522618e-09   1.0884078246343836e-08   7.0005033653690197e-09   1.1336265193099929e-08   1.3081375426441295e-08   1.1096410108663306e-08   1.1841884379625811e-08   1.2038039093208201e-08   5.3361526737068678e-09   9.8794170554690420e-09   5.6427414294920320e-09   1.2452785096659605e-08   9.7015992218671393e-09   6.1355502861696370e-09   7.9056490856993380e-09   7.8485672647112549e-09   1.1044639285697255e-08   6.8520311662817453e-08   7.8328594528435701e-08   3.4435601387244346e-08   7.0144420260505285e-08   1.7576451272760782e-08   3.4292153749305746e-08   1.5522418760605880e-08   1.7291253769144102e-08   2.0192419436760748e-08   1.7553141289127888e-08   2.9579800422577025e-08   2.5150955151647346e-08   3.1421016573576624e-08   2.0080098299116616e-08   2.5067281409686777e-08   8.5091343855496558e-08   7.0726862571190975e-08   6.0368239047080773e-08   5.9443129145927316e-08   1.5694631052936814e-08   1.0645421187390449e-08   1.6764981327348908e-08   2.1586076975984985e-08   1.4023199477470404e-08   1.8456310233922270e-08   2.8859312383428006e-08   1.5397377257297980e-08   2.5748067828344037e-08   2.1271058948841713e-08   2.4045306817105704e-08   3.5558258749407539e-08   4.2830880680681615e-08   3.6899225782452033e-08   5.5082746024222266e-08   3.6704187716465127e-08   4.2920084036758269e-08   5.2465970667503161e-08   4.3006546242317164e-08   6.2495537076885360e-08   3.3751845251047295e-08   3.4734026310408677e-08   5.5061278623039732e-08   4.6072251617709763e-08   5.4171380705487116e-08   1.9605379732037761e-07   1.3184546268328518e-07   1.9535289625225947e-07   1.9579777137020208e-07   5.4631026669291934e-08   1.1426463473567278e-07   3.9068038775311665e-08   3.9910776100933241e-08   9.0001113099536548e-08   7.1665639686433186e-08   8.6254075863303067e-08   1.1146458933542759e-07   8.9858320996953219e-08   1.1681686397863164e-07   9.7643834998255636e-08   6.4942754785464580e-08   6.7587999387137142e-08   4.0073510083568424e-08   2.4568893466827398e-08   1.0941862127801204e-07   1.0265599219425254e-07   2.7346928506594954e-08   2.5020218786020550e-08   8.4631033827479647e-09   2.9252119423163642e-08   1.7528401908969140e-08   3.2244227133240907e-08   1.8748370847603674e-08   3.4697288863032151e-08   9.3053070327252667e-09   1.3575833711750564e-08   1.1672345553982265e-08   7.6052255962296347e-09   1.2607345326446762e-08   3.4535679826432790e-09   4.8750000611489742e-09   2.6055282136270202e-09   4.4859669418544231e-09   3.3213762558101518e-09   2.8669330225649816e-09   6.2622489536150390e-09   8.3901892345944701e-09   9.8514651896621939e-09   1.0475168947680400e-08   3.7327676898636384e-09   3.5846608118599168e-09   3.9197088603881514e-09   3.5758021028674917e-09   2.6467287524671725e-09   4.4767031188491530e-09   3.0519668664588767e-09   4.6944289439607899e-09   2.8948716860592663e-09   3.8213865063513962e-09   4.1822438069687698e-09   3.8648790292141197e-09   9.3329636348666090e-09   9.2600179106269372e-09   8.9209081828808717e-09   8.5249368996450733e-09   8.6928680834086692e-09   8.6824752306864193e-09   8.1305006242884445e-09   9.0116119980245424e-09   8.1326491082162326e-09   1.1255731634975849e-08   8.5513053243508502e-09   1.0923990692090973e-08   1.0862782135489732e-08   1.4458005074694900e-08   1.6232719197087114e-08   9.1756853957201687e-09   9.2215936854186001e-09   8.2114834168985936e-09   9.0751744922986900e-09   7.8318620634484531e-09   1.4714430237980008e-08   7.2818442054010173e-09   1.1641843590886985e-08   1.3575032200747681e-08   1.2742201763182800e-08   1.0976220624396421e-08   1.0994365145355031e-08   9.5745002374684437e-09   1.4653551288511263e-08   7.4589281275509074e-09   1.3550286523399791e-08   8.1376754551372049e-09   1.5961506874439991e-08   1.4318466291199276e-08   1.4299672517878737e-08   1.4426829189827736e-08   1.2776652804743281e-08   1.8007161114451408e-08   1.7555579775067754e-08   1.6675035214507732e-08   8.7699230148062521e-09   9.5349909309042827e-09   1.1057295882788460e-08   8.2341449879251493e-09   1.1170820223968037e-08   9.7483891886745795e-09   1.0146600939626559e-08   9.5060240319724500e-09   8.3950452926291884e-09   7.2122193177851226e-09   8.1378954633599384e-09   1.0305599954360768e-08   1.2330358973276723e-08   1.5404689493578928e-08   9.4481806835502986e-09   1.5007814164851354e-08   1.1034886624644402e-08   1.0518332117754754e-08   1.1683171796267345e-08   1.6411977229648755e-08   1.8305173768612370e-08   7.3177583306397183e-09   1.0712110550931971e-08   1.1770721237098823e-08   1.5278492311239997e-08   5.3897955671908810e-09   8.2415601557264257e-09   5.7176048535819643e-09   4.3269212940852345e-09   5.8401565503416289e-09   3.5424370202929807e-09   5.1586495083105935e-09   3.3289703925884097e-09   4.7789853218124049e-09   2.6861687553928140e-09   3.8911011903491224e-09   1.0648040841177659e-10   9.5751531338369873e-10   1.3549661608809730e-09   1.3815318748315181e-09   6.3471627758908486e-09   7.8414517021647819e-09   7.4220081590540042e-09   2.1106263348492774e-09   2.1342526115598132e-09   1.1743567073481594e-08   1.0559062957179613e-08   1.0744708262029554e-08   9.8372511170886544e-09   9.0983518772256675e-09   1.0576224998856410e-08   9.6442720454603402e-09   1.4024072965984271e-08   1.2732792687316736e-08   1.0862894464206453e-08   1.0888392683341275e-08   1.3991887841400927e-08   1.1732684627848531e-08   1.4404745679776694e-08   3.4851069489436281e-08   7.8227708869598001e-08   6.2608732235141623e-08   3.2876787102232541e-08   2.4113212836151933e-08   6.3150078258068504e-08   3.4302434818413958e-08   5.7832972329265857e-08   3.9151908721570297e-08   7.0819709475780337e-08   6.3288236440956260e-08   1.3687727600612454e-07   6.0708358588910633e-08   5.5412588738471152e-08   5.9513138292643229e-08   4.3819955521741875e-08   5.4669408520094630e-08   5.1456438404191624e-08   2.3993891323719222e-08   2.1519061787426410e-08   2.7936649009310518e-08   1.6580176349108858e-08   3.1183274305160537e-08   2.6721144154907180e-08   3.8200709126311077e-08   3.3315458536435201e-08   4.4328027466932653e-08   1.1377435263155194e-07   1.1901282905760320e-07   1.1621401502485124e-07   1.3899369634805636e-07   9.0308223060430697e-08   1.2591104318874633e-07   1.0315403573072146e-07   1.0523105228564589e-07   7.5159537351175817e-08   1.0182055672493344e-07   6.5137072717201119e-08   7.1360705766182158e-08   2.6091512242116323e-07   1.2983928469732112e-07   2.0257634182607372e-07   1.8553837165275993e-07   1.8626799627304236e-07   2.9127007042989117e-07   1.7176947947896481e-07   1.2855788602642376e-07   1.7659039871897407e-07   1.5028028824779169e-07   9.4586969325134621e-08   1.2944751573976969e-07   9.9919268454314514e-08   9.3611570219424633e-08   5.1979708505401047e-08   8.0272543838386915e-08   4.2823409922968075e-08   8.3311849393647531e-08   6.5494954434777046e-08   9.1286977838116574e-08   7.7665655944434505e-08   1.4688697755577876e-08   1.2036530173800285e-08   6.5229408780052698e-08   3.0833163510495062e-08   7.7477771137118253e-08   1.0984139175106743e-08   2.4835183049438864e-08   2.2690142384037117e-08   1.5430041694133438e-08   4.3293985061385974e-09   4.4703764626946546e-09   8.1383680188523425e-09   3.5675686709532160e-09   7.1188142582134025e-09   1.1711360128127969e-08   6.8027057446277095e-09   6.9516277933717054e-09   3.2955662272304186e-09   2.7331111586247155e-09   3.3713080137238129e-09   3.0268279538507360e-09   3.5174751300347852e-09   3.6709108467529815e-09   3.0799619166540698e-09   4.0380814857892272e-09   4.0705523682035686e-09   3.3915060261173043e-09   3.8838010273335262e-09   3.1031602125107125e-09   3.9182671705921889e-09   3.5892414078677982e-09   4.1831731814479319e-09   5.0255201823015318e-09   1.2660949203248967e-08   1.2537610655101723e-08   9.8638567047259331e-09   1.2786044562544079e-08   8.9742099795838447e-09   9.8749558931494853e-09   7.7263183518429739e-09   9.5516957131805563e-09   1.0838678660783521e-08   7.6194366523429821e-09   9.3792047258573829e-09   9.1110296812158425e-09   8.0912414262167553e-09   7.4631969918928594e-09   9.4153789874197412e-09   5.1650946875108977e-09   5.7883775479028580e-09   1.5073198482149738e-08   1.7676729292563932e-08   1.9193850687828143e-08   2.0456060107214056e-08   2.7786278605009506e-08   2.1201570722325705e-08   7.7917680432715087e-09   1.5247872793499483e-08   8.7301138746613214e-09   1.0157757656389314e-08   1.5623047393584403e-08   1.3169481523932643e-08   1.9186900189036895e-08   8.5829602176559108e-09   1.4347783964493847e-08   1.8653112924054187e-08   2.2767888569556918e-08   1.5269687431711881e-08   1.6762197059533335e-08   3.9162559420697131e-08   3.1512147454527079e-08   2.9150497002297854e-08   6.4666799844105209e-08   4.8944942905518290e-08   1.2323528789414443e-08   1.0300873262460982e-08   1.0610947690680779e-08   1.3602041803849487e-08   8.5024847530195075e-09   1.2971616623419732e-08   2.1829795511394976e-08   1.1158690277261791e-08   1.4307383534695959e-08   2.7299193319800079e-08   2.2198962845228747e-08   1.8441684064485560e-08   1.9328528872538002e-08   2.5973036701266374e-08   1.8738829484404817e-08   1.5809857104675479e-08   1.6451430400382767e-08   1.6471517935972308e-08   1.5560922582004836e-08   1.7878332747347300e-08   1.4496904738335078e-08   1.3327099206370921e-08   1.6236183680475124e-08   8.0353982747649298e-09   1.4434781627192120e-08   5.5733307757060984e-09   4.4164395843916263e-09   7.0567354939189958e-09   9.4998375366953782e-09   6.2795706058397291e-09   6.0707344741065105e-09   4.6251730830221574e-09   4.9245567609223571e-09   1.0649873831732191e-09   1.9184227885